                         Program Version 4.2.1 -  RELEASE  -
|  1> ! OptTS Freq PBE0 RIJCOSX D3BJ def2-SVP def2/J CPCM(Acetone)
|  2> %geom
|  3> modify_internal
|  4> { B 1 14 A } end
|  5> end
|  6> %geom
|  7> modify_internal
|  8> { B 1 4 A } end
|  9> end
| 10> %geom
| 11> Constraints
| 12> {C 14 C}
| 13> {C 4 C}
| 14> end
| 15> end
| 16> %output
| 17> xyzfile=True
| 18> end
| 19> %scf
| 20> maxiter 250
| 21> end
| 22> %output
| 23> Print[P_Hirshfeld] = 1
| 24> end
| 25> % maxcore
| 26> 4000
| 27> %geom
| 28> Calc_Hess true
| 29> Recalc_Hess 30
| 30> Trust -0.1
| 31> MaxIter 150
| 32> end
| 33> %pal nprocs 4
| 34> end
| 35> *xyz -1 1
| 36>   C   6.81195377804339      1.33669859705544     -0.12409115264081
| 37>   C   6.11596718133542      0.04566710115891     -0.23259894752560
| 38>   C   4.70302716638428     -0.05160324312650      0.16254123997303
| 39>   C   6.84158226788788     -1.14601610130547     -0.69226151128172
| 40>   Br  6.85050005803464     -0.55429554692500      2.80856313473467
| 41>   H   6.64903769411805      1.79369029504183     -1.11879110464942
| 42>   H   6.37419568570653      1.98623367511860      0.64133634386059
| 43>   H   7.89243236459460      1.21171290012729      0.02118328099120
| 44>   H   4.15984738506656      0.23512109440381     -0.75738874131454
| 45>   H   4.44981516194393      0.65615210747933      0.95923883102737
| 46>   H   4.41634402027223     -1.07689436042766      0.42657409607096
| 47>   H   7.24364804806418     -1.57497971959576      0.24708529761762
| 48>   H   7.68098297029870     -0.89175684746912     -1.34846520329168
| 49>   H   6.17569640137360     -1.88116918163514     -1.15711038096883
| 50>   Br  5.44598528070721      0.46855587433879     -3.01760857412873
| 51> *
| 52>
| 53>                          ****END OF INPUT****
 Total Charge           Charge          ....   -1
 Multiplicity           Mult            ....    1
 Number of Electrons    NEL             ....  104
Dispersion correction           -0.013982669
FINAL SINGLE POINT ENERGY     -5304.787204826019
Dispersion correction            ... done
Dispersion correction in the Hessian             ... done   (      0.7 sec)
Dispersion correction           -0.013978239
FINAL SINGLE POINT ENERGY     -5304.787572099819
Dispersion correction            ... done
Dispersion correction           -0.013974193
FINAL SINGLE POINT ENERGY     -5304.787871608735
FINAL SINGLE POINT ENERGY     -5304.788119689495
FINAL SINGLE POINT ENERGY     -5304.788316044652
FINAL SINGLE POINT ENERGY     -5304.788446121974
FINAL SINGLE POINT ENERGY     -5304.788408139212
FINAL SINGLE POINT ENERGY     -5304.788460953063
FINAL SINGLE POINT ENERGY     -5304.788478233128
FINAL SINGLE POINT ENERGY     -5304.788491930789
FINAL SINGLE POINT ENERGY     -5304.788982450986
FINAL SINGLE POINT ENERGY     -5304.788988030210
FINAL SINGLE POINT ENERGY     -5304.788995699701
FINAL SINGLE POINT ENERGY     -5304.789002768870
FINAL SINGLE POINT ENERGY     -5304.789011068698
FINAL SINGLE POINT ENERGY     -5304.789021548183
FINAL SINGLE POINT ENERGY     -5304.789026080760
Dispersion correction           -0.013978679
FINAL SINGLE POINT ENERGY     -5304.789034218080
Dispersion correction            ... done
Dispersion correction           -0.013977577
FINAL SINGLE POINT ENERGY     -5304.789037024084
Dispersion correction            ... done
                    ***********************HURRAY********************

CARTESIAN COORDINATES (ANGSTROEM)
---------------------------------
  C      6.833342    1.287014    0.037303
  C      6.143868   -0.007885   -0.101275
  C      4.705334   -0.083763    0.218462
  C      6.888339   -1.189703   -0.574922
  Br     6.850500   -0.554296    2.808563
  H      6.791454    1.728620   -0.975347
  H      6.320902    1.959605    0.733822
  H      7.888419    1.158143    0.308954
  H      4.183377    0.613051   -0.455120
  H      4.551089    0.276533    1.245070
  H      4.292053   -1.090671    0.090391
  H      7.279987   -1.662133    0.343932
  H      7.741714   -0.909591   -1.203744
  H      6.235808   -1.905763   -1.086022
  Br     5.445985    0.468556   -3.017609

 Multiplicity           Mult            ....    1
 Number of Electrons    NEL             ....  104
 Basis Dimension        Dim             ....  165

ORBITAL ENERGIES
----------------

  NO   OCC          E(Eh)            E(eV)
   0   2.0000    -483.082114    -13145.3326
   1   2.0000    -483.082018    -13145.3300
   2   2.0000     -62.517287     -1701.1819
   3   2.0000     -62.517211     -1701.1798
   4   2.0000     -56.305215     -1532.1428
   5   2.0000     -56.305150     -1532.1410
   6   2.0000     -56.305045     -1532.1382
   7   2.0000     -56.305021     -1532.1375
   8   2.0000     -56.304973     -1532.1362
   9   2.0000     -56.304919     -1532.1347
  10   2.0000     -10.348377      -281.5937
  11   2.0000     -10.235780      -278.5297
  12   2.0000     -10.235009      -278.5087
  13   2.0000     -10.234960      -278.5074
  14   2.0000      -8.660922      -235.6757
  15   2.0000      -8.660857      -235.6739
  16   2.0000      -6.468039      -176.0043
  17   2.0000      -6.468021      -176.0038
  18   2.0000      -6.466875      -175.9726
  19   2.0000      -6.466812      -175.9709
  20   2.0000      -6.466735      -175.9688
  21   2.0000      -6.466582      -175.9646
  22   2.0000      -2.554751       -69.5183
  23   2.0000      -2.554743       -69.5181
  24   2.0000      -2.554503       -69.5116
  25   2.0000      -2.554496       -69.5114
  26   2.0000      -2.554385       -69.5084
  27   2.0000      -2.554308       -69.5063
  28   2.0000      -2.553461       -69.4832
  29   2.0000      -2.553444       -69.4828
  30   2.0000      -2.553321       -69.4794
  31   2.0000      -2.553314       -69.4792
  32   2.0000      -0.860054       -23.4033
  33   2.0000      -0.727658       -19.8006
  34   2.0000      -0.724694       -19.7199
  35   2.0000      -0.671912       -18.2837
  36   2.0000      -0.668940       -18.2028
  37   2.0000      -0.554323       -15.0839
  38   2.0000      -0.475332       -12.9344
  39   2.0000      -0.474724       -12.9179
  40   2.0000      -0.473364       -12.8809
  41   2.0000      -0.410993       -11.1837
  42   2.0000      -0.407025       -11.0757
  43   2.0000      -0.389041       -10.5863
  44   2.0000      -0.380974       -10.3668
  45   2.0000      -0.379167       -10.3176
  46   2.0000      -0.232077        -6.3151
  47   2.0000      -0.231046        -6.2871
  48   2.0000      -0.230345        -6.2680
  49   2.0000      -0.227095        -6.1796
  50   2.0000      -0.226504        -6.1635
  51   2.0000      -0.224905        -6.1200
  52   0.0000      -0.092359        -2.5132
  53   0.0000       0.085588         2.3290
  54   0.0000       0.129769         3.5312
  55   0.0000       0.131148         3.5687
  56   0.0000       0.139190         3.7876

MULLIKEN ATOMIC CHARGES
-----------------------
   0 C :    0.039570
   1 C :   -0.240451
   2 C :    0.047268
   3 C :    0.056010
   4 Br:   -0.818858
   5 H :    0.091724
   6 H :    0.073572
   7 H :    0.081247
   8 H :    0.092620
   9 H :    0.085705
  10 H :    0.066541
  11 H :    0.090634
  12 H :    0.076001
  13 H :    0.076342
  14 Br:   -0.817924
Sum of atomic charges:   -1.0000000

LOEWDIN ATOMIC CHARGES
----------------------
   0 C :   -0.061863
   1 C :    0.239491
   2 C :   -0.061472
   3 C :   -0.063447
   4 Br:   -0.782877
   5 H :    0.066409
   6 H :    0.049981
   7 H :    0.055361
   8 H :    0.065526
   9 H :    0.058260
  10 H :    0.046724
  11 H :    0.065524
  12 H :    0.052596
  13 H :    0.049727
  14 Br:   -0.779942

  Mayer bond orders larger than 0.100000
B(  0-C ,  1-C ) :   1.1083 B(  0-C ,  5-H ) :   0.8748 B(  0-C ,  6-H ) :   0.9519
B(  0-C ,  7-H ) :   0.9392 B(  1-C ,  2-C ) :   1.1029 B(  1-C ,  3-C ) :   1.1111
B(  1-C ,  4-Br) :   0.1912 B(  1-C , 14-Br) :   0.1865 B(  2-C ,  8-H ) :   0.9027
B(  2-C ,  9-H ) :   0.9116 B(  2-C , 10-H ) :   0.9591 B(  3-C , 11-H ) :   0.8730
B(  3-C , 12-H ) :   0.9459 B(  3-C , 13-H ) :   0.9422

Dispersion correction           -0.013977386
FINAL SINGLE POINT ENERGY     -5304.789038142821

DIPOLE MOMENT
-------------
                                X             Y             Z
Electronic contribution:      0.05812      -0.51516       0.04780
Nuclear contribution   :     -0.06104       0.64477      -0.05783
                        -----------------------------------------
Total Dipole Moment    :     -0.00292       0.12961      -0.01003
                        -----------------------------------------
Magnitude (a.u.)       :      0.13003
Magnitude (Debye)      :      0.33052

Dispersion correction in the Hessian             ... done   (      0.8 sec)

VIBRATIONAL FREQUENCIES
-----------------------

Scaling factor for frequencies =  1.000000000  (already applied!)

   0:         0.00 cm**-1
   1:         0.00 cm**-1
   2:         0.00 cm**-1
   3:         0.00 cm**-1
   4:         0.00 cm**-1
   5:         0.00 cm**-1
   6:      -291.79 cm**-1 ***imaginary mode***
   7:        48.04 cm**-1
   8:        65.58 cm**-1
   9:        73.52 cm**-1
  10:        77.40 cm**-1
  11:       136.29 cm**-1
  12:       169.46 cm**-1
  13:       204.03 cm**-1
  14:       214.94 cm**-1
  15:       298.55 cm**-1
  16:       396.25 cm**-1
  17:       409.28 cm**-1
  18:       695.33 cm**-1
  19:       807.29 cm**-1
  20:       848.62 cm**-1
  21:       968.22 cm**-1
  22:       979.20 cm**-1
  23:      1016.11 cm**-1
  24:      1063.35 cm**-1
  25:      1265.98 cm**-1
  26:      1274.67 cm**-1
  27:      1303.28 cm**-1
  28:      1312.33 cm**-1
  29:      1348.85 cm**-1
  30:      1386.64 cm**-1
  31:      1399.07 cm**-1
  32:      1412.81 cm**-1
  33:      1439.80 cm**-1
  34:      1463.14 cm**-1
  35:      1472.39 cm**-1
  36:      3040.43 cm**-1
  37:      3045.79 cm**-1
  38:      3070.13 cm**-1
  39:      3154.96 cm**-1
  40:      3158.54 cm**-1
  41:      3162.65 cm**-1
  42:      3208.23 cm**-1
  43:      3218.64 cm**-1
  44:      3221.30 cm**-1

IR SPECTRUM
-----------

 Mode    freq (cm**-1)   T**2         TX         TY         TZ
-------------------------------------------------------------------
   7:        48.04   20.507220  ( -1.799830  -0.595381  -4.112585)
   8:        65.58   24.840156  (  2.522887   3.841278  -1.928672)
   9:        73.52   78.680141  (  2.925959  -1.420419   8.252352)
  10:        77.40   26.294889  (  3.235220  -2.702989  -2.919262)
  11:       136.29    3.022190  ( -0.325417   0.227598  -1.692481)
  12:       169.46    9.347142  ( -1.121804   0.588897  -2.782427)
  13:       204.03    0.818544  (  0.210612   0.190754  -0.858953)
  14:       214.94    3.983947  (  0.444605  -0.625518   1.842553)
  15:       298.55   41.196932  ( -1.526541   1.511756  -6.048239)
  16:       396.25    1.849521  (  0.250084   0.113035  -1.331992)
  17:       409.28    7.306531  ( -0.601679   0.060064  -2.634560)
  18:       695.33    1.235053  ( -0.787183  -0.024157   0.784100)
  19:       807.29   17.103057  ( -0.389135  -2.640624   3.158913)
  20:       848.62    4.288178  (  1.739947  -0.317360  -1.077054)
  21:       968.22   14.460754  ( -2.064553   2.107605  -2.399245)
  22:       979.20   52.855324  ( -0.214832   3.017361  -6.610953)
  23:      1016.11   62.537019  (  2.166671  -3.730894   6.627442)
  24:      1063.35  407.754621  (  6.162755  -6.485776  18.102756)
  25:      1265.98   61.557469  (  6.848124  -1.413730  -3.558375)
  26:      1274.67   12.943268  (  1.133279   3.378499  -0.494662)
  27:      1303.28   28.443737  ( -0.858294   5.049017   1.488118)
  28:      1312.33  243.522069  ( 13.237841  -6.405751  -5.219959)
  29:      1348.85  163.022555  ( -5.520416 -11.046555  -3.243637)
  30:      1386.64    3.701906  ( -1.357884   1.363082   0.008026)
  31:      1399.07    1.152729  (  0.644657  -0.193906  -0.836389)
  32:      1412.81    8.896661  ( -0.546927  -2.898664  -0.441905)
  33:      1439.80    4.412824  (  1.029999   1.788102   0.393215)
  34:      1463.14   28.273106  (  4.446189   2.786548   0.860038)
  35:      1472.39   24.353379  (  2.106397  -2.910341  -3.383251)
  36:      3040.43    7.729737  ( -1.406875  -2.025317  -1.283951)
  37:      3045.79    6.751514  ( -1.201493   1.302074   1.900666)
  38:      3070.13    6.121521  ( -2.091700   1.304824   0.209158)
  39:      3154.96    2.353362  (  0.575947   0.876880   1.119253)
  40:      3158.54    6.112483  (  0.069684  -0.799589  -2.338437)
  41:      3162.65   12.527650  ( -0.543118  -0.264549   3.487504)
  42:      3208.23    9.312866  (  2.939557   0.767081   0.288890)
  43:      3218.64    1.575505  ( -0.307240  -1.139173  -0.428244)
  44:      3221.30    0.600434  ( -0.532561  -0.469649  -0.310229)

--------------------------
THERMOCHEMISTRY AT 298.15K
--------------------------

Temperature         ... 298.15 K
Pressure            ... 1.00 atm
Total Mass          ... 216.92 AMU

Throughout the following assumptions are being made:
  (1) The electronic state is orbitally nondegenerate
  (2) There are no thermally accessible electronically excited states
  (3) Hindered rotations indicated by low frequency modes are not
      treated as such but are treated as vibrations and this may
      cause some error
  (4) All equations used are the standard statistical mechanics
      equations for an ideal gas
  (5) All vibrations are strictly harmonic

freq.      48.04  E(vib)   ...       0.53
freq.      65.58  E(vib)   ...       0.50
freq.      73.52  E(vib)   ...       0.49
freq.      77.40  E(vib)   ...       0.49
freq.     136.29  E(vib)   ...       0.42
freq.     169.46  E(vib)   ...       0.38
freq.     204.03  E(vib)   ...       0.35
freq.     214.94  E(vib)   ...       0.34
freq.     298.55  E(vib)   ...       0.26
freq.     396.25  E(vib)   ...       0.20
freq.     409.28  E(vib)   ...       0.19
freq.     695.33  E(vib)   ...       0.07
freq.     807.29  E(vib)   ...       0.05
freq.     848.62  E(vib)   ...       0.04
freq.     968.22  E(vib)   ...       0.03
freq.     979.20  E(vib)   ...       0.03
freq.    1016.11  E(vib)   ...       0.02
freq.    1063.35  E(vib)   ...       0.02
freq.    1265.98  E(vib)   ...       0.01
freq.    1274.67  E(vib)   ...       0.01
freq.    1303.28  E(vib)   ...       0.01
freq.    1312.33  E(vib)   ...       0.01
freq.    1348.85  E(vib)   ...       0.01
freq.    1386.64  E(vib)   ...       0.00
freq.    1399.07  E(vib)   ...       0.00
freq.    1412.81  E(vib)   ...       0.00
freq.    1439.80  E(vib)   ...       0.00
freq.    1463.14  E(vib)   ...       0.00
freq.    1472.39  E(vib)   ...       0.00
freq.    3040.43  E(vib)   ...       0.00
freq.    3045.79  E(vib)   ...       0.00
freq.    3070.13  E(vib)   ...       0.00
freq.    3154.96  E(vib)   ...       0.00
freq.    3158.54  E(vib)   ...       0.00
freq.    3162.65  E(vib)   ...       0.00
freq.    3208.23  E(vib)   ...       0.00
freq.    3218.64  E(vib)   ...       0.00
freq.    3221.30  E(vib)   ...       0.00

------------
INNER ENERGY
------------

The inner energy is: U= E(el) + E(ZPE) + E(vib) + E(rot) + E(trans)
    E(el)   - is the total energy from the electronic structure calculation
              = E(kin-el) + E(nuc-el) + E(el-el) + E(nuc-nuc)
    E(ZPE)  - the the zero temperature vibrational energy from the frequency calculation
    E(vib)  - the the finite temperature correction to E(ZPE) due to population
              of excited vibrational states
    E(rot)  - is the rotational thermal energy
    E(trans)- is the translational thermal energy

Summary of contributions to the inner energy U:
Electronic energy                ...  -5304.78903814 Eh
Zero point energy                ...      0.11807993 Eh      74.10 kcal/mol
Thermal vibrational correction   ...      0.00710988 Eh       4.46 kcal/mol
Thermal rotational correction    ...      0.00141627 Eh       0.89 kcal/mol
Thermal translational correction ...      0.00141627 Eh       0.89 kcal/mol
-----------------------------------------------------------------------
Total thermal energy                  -5304.66101579 Eh

Summary of corrections to the electronic energy:
(perhaps to be used in another calculation)
Total thermal correction                  0.00994242 Eh       6.24 kcal/mol
Non-thermal (ZPE) correction              0.11807993 Eh      74.10 kcal/mol
-----------------------------------------------------------------------
Total correction                          0.12802235 Eh      80.34 kcal/mol

--------
ENTHALPY
--------

The enthalpy is H = U + kB*T
                kB is Boltzmann's constant
Total free energy                 ...  -5304.66101579 Eh
Thermal Enthalpy correction       ...      0.00094421 Eh       0.59 kcal/mol
-----------------------------------------------------------------------
Total Enthalpy                    ...  -5304.66007158 Eh

Note: Only C1 symmetry has been detected, increase convergence thresholds
      if your molecule has a higher symmetry. Symmetry factor of 1.0 is
      used for the rotational entropy correction.

Note: Rotational entropy computed according to Herzberg
Infrared and Raman Spectra, Chapter V,1, Van Nostrand Reinhold, 1945
Point Group:  C1, Symmetry Number:   1
Rotational constants in cm-1:     0.147862     0.010963     0.010950

Vibrational entropy computed according to the QRRHO of S. Grimme
Chem.Eur.J. 2012 18 9955

-------
ENTROPY
-------

The entropy contributions are T*S = T*(S(el)+S(vib)+S(rot)+S(trans))
     S(el)   - electronic entropy
     S(vib)  - vibrational entropy
     S(rot)  - rotational entropy
     S(trans)- translational entropy
The entropies will be listed as mutliplied by the temperature to get
units of energy

Electronic entropy                ...      0.00000000 Eh      0.00 kcal/mol
Vibrational entropy               ...      0.01317270 Eh      8.27 kcal/mol
Rotational entropy                ...      0.01467508 Eh      9.21 kcal/mol
Translational entropy             ...      0.01996792 Eh     12.53 kcal/mol
-----------------------------------------------------------------------
Final entropy term                ...      0.04781569 Eh     30.00 kcal/mol

In case the symmetry of your molecule has not been determined correctly
or in case you have a reason to use a different symmetry number we print
out the resulting rotational entropy values for sn=1,12 :
 --------------------------------------------------------
|  sn= 1 | S(rot)=       0.01467508 Eh      9.21 kcal/mol|
|  sn= 2 | S(rot)=       0.01402062 Eh      8.80 kcal/mol|
|  sn= 3 | S(rot)=       0.01363779 Eh      8.56 kcal/mol|
|  sn= 4 | S(rot)=       0.01336617 Eh      8.39 kcal/mol|
|  sn= 5 | S(rot)=       0.01315548 Eh      8.26 kcal/mol|
|  sn= 6 | S(rot)=       0.01298333 Eh      8.15 kcal/mol|
|  sn= 7 | S(rot)=       0.01283779 Eh      8.06 kcal/mol|
|  sn= 8 | S(rot)=       0.01271171 Eh      7.98 kcal/mol|
|  sn= 9 | S(rot)=       0.01260050 Eh      7.91 kcal/mol|
|  sn=10 | S(rot)=       0.01250102 Eh      7.84 kcal/mol|
|  sn=11 | S(rot)=       0.01241103 Eh      7.79 kcal/mol|
|  sn=12 | S(rot)=       0.01232888 Eh      7.74 kcal/mol|
 --------------------------------------------------------

-------------------
GIBBS FREE ENERGY
-------------------

The Gibbs free energy is G = H - T*S

Total enthalpy                    ...  -5304.66007158 Eh
Total entropy correction          ...     -0.04781569 Eh    -30.00 kcal/mol
-----------------------------------------------------------------------
Final Gibbs free energy         ...  -5304.70788728 Eh

                             ****ORCA TERMINATED NORMALLY****
TOTAL RUN TIME: 0 days 0 hours 15 minutes 19 seconds 8 msec
