                         Program Version 4.2.1 -  RELEASE  -
|  1> ! OptTS Freq PBE0 RIJCOSX D3BJ def2-SVP def2/J CPCM(Acetone)
|  2> %geom
|  3> modify_internal
|  4> { B 4 17 A } end
|  5> end
|  6> %geom
|  7> modify_internal
|  8> { B 4 5 A } end
|  9> end
| 10> %output
| 11> xyzfile=True
| 12> end
| 13> %scf
| 14> maxiter 250
| 15> end
| 16> %output
| 17> Print[P_Hirshfeld] = 1
| 18> end
| 19> % maxcore
| 20> 4000
| 21> %geom
| 22> Calc_Hess true
| 23> Recalc_Hess 30
| 24> Trust -0.1
| 25> MaxIter 150
| 26> end
| 27> %pal nprocs 4
| 28> end
| 29> *xyz -1 1
| 30> C    -0.77738   1.83236  -0.98216
| 31> C    -0.39360   0.40641  -1.41901
| 32> C     0.73039   0.51752  -2.45744
| 33> C    -1.64257  -0.23578  -2.03988
| 34> C     0.09230  -0.45760  -0.26856
| 35> Br    0.10493   0.78923   1.92514
| 36> H    -1.56915   1.81977  -0.22111
| 37> H    -1.14421   2.37711  -1.86738
| 38> H     0.08200   2.37131  -0.56092
| 39> H     1.61383   1.01035  -2.02047
| 40> H     0.39577   1.12228  -3.31428
| 41> H     1.02532  -0.48146  -2.80689
| 42> H    -1.41153  -1.24899  -2.39571
| 43> H    -2.45488  -0.29838  -1.29828
| 44> H    -2.00082   0.37442  -2.88356
| 45> H    -0.58508  -1.11646   0.26165
| 46> H     1.15131  -0.55582  -0.06101
| 47> Br    0.57721  -2.63043  -1.42275
| 48> *
| 49>
| 50>                          ****END OF INPUT****
 Total Charge           Charge          ....   -1
 Multiplicity           Mult            ....    1
 Number of Electrons    NEL             ....  112
Dispersion correction           -0.017786950
FINAL SINGLE POINT ENERGY     -5344.023293433789
Dispersion correction            ... done
Dispersion correction in the Hessian             ... done   (      0.9 sec)
Dispersion correction           -0.017737526
FINAL SINGLE POINT ENERGY     -5344.023967749813
Dispersion correction            ... done
Dispersion correction           -0.017687848
FINAL SINGLE POINT ENERGY     -5344.024524441095
FINAL SINGLE POINT ENERGY     -5344.024975812739
FINAL SINGLE POINT ENERGY     -5344.025330446630
FINAL SINGLE POINT ENERGY     -5344.025583259328
FINAL SINGLE POINT ENERGY     -5344.025755941339
FINAL SINGLE POINT ENERGY     -5344.025833914707
FINAL SINGLE POINT ENERGY     -5344.025881257662
FINAL SINGLE POINT ENERGY     -5344.025900634995
FINAL SINGLE POINT ENERGY     -5344.025910434367
FINAL SINGLE POINT ENERGY     -5344.025921388021
FINAL SINGLE POINT ENERGY     -5344.025901259492
FINAL SINGLE POINT ENERGY     -5344.025895250786
Dispersion correction           -0.017419636
FINAL SINGLE POINT ENERGY     -5344.025890661690
Dispersion correction            ... done
Dispersion correction           -0.017420889
FINAL SINGLE POINT ENERGY     -5344.025887898057
Dispersion correction            ... done
                    ***********************HURRAY********************

CARTESIAN COORDINATES (ANGSTROEM)
---------------------------------
  C     -0.806509    1.814983   -0.970281
  C     -0.393846    0.401983   -1.432895
  C      0.740461    0.543013   -2.453374
  C     -1.632240   -0.235068   -2.081795
  C      0.079312   -0.455217   -0.280030
  Br     0.276464    0.869850    1.938307
  H     -1.595426    1.771060   -0.207030
  H     -1.189187    2.364545   -1.845703
  H      0.043585    2.361465   -0.541655
  H      1.616038    1.030819   -1.996138
  H      0.412662    1.162980   -3.301558
  H      1.049497   -0.442677   -2.830830
  H     -1.392513   -1.225818   -2.491375
  H     -2.442417   -0.349791   -1.344895
  H     -2.000453    0.409686   -2.894641
  H     -0.621930   -1.028715    0.316915
  H      1.135863   -0.572837   -0.071268
  Br     0.514478   -2.824419   -1.344373

 Multiplicity           Mult            ....    1
 Number of Electrons    NEL             ....  112
 Basis Dimension        Dim             ....  189

ORBITAL ENERGIES
----------------

  NO   OCC          E(Eh)            E(eV)
   0   2.0000    -483.105513    -13145.9693
   1   2.0000    -483.103743    -13145.9212
   2   2.0000     -62.540788     -1701.8214
   3   2.0000     -62.538887     -1701.7696
   4   2.0000     -56.329197     -1532.7954
   5   2.0000     -56.328301     -1532.7710
   6   2.0000     -56.328215     -1532.7686
   7   2.0000     -56.327352     -1532.7452
   8   2.0000     -56.326378     -1532.7187
   9   2.0000     -56.326285     -1532.7161
  10   2.0000     -10.293541      -280.1015
  11   2.0000     -10.251030      -278.9447
  12   2.0000     -10.217009      -278.0189
  13   2.0000     -10.212879      -277.9066
  14   2.0000     -10.212691      -277.9014
  15   2.0000      -8.684506      -236.3174
  16   2.0000      -8.682566      -236.2646
  17   2.0000      -6.493937      -176.7090
  18   2.0000      -6.491641      -176.6465
  19   2.0000      -6.489168      -176.5792
  20   2.0000      -6.489108      -176.5776
  21   2.0000      -6.487431      -176.5320
  22   2.0000      -6.487332      -176.5293
  23   2.0000      -2.580192       -70.2106
  24   2.0000      -2.578961       -70.1771
  25   2.0000      -2.578896       -70.1753
  26   2.0000      -2.577970       -70.1501
  27   2.0000      -2.576896       -70.1209
  28   2.0000      -2.576830       -70.1191
  29   2.0000      -2.575086       -70.0716
  30   2.0000      -2.575075       -70.0714
  31   2.0000      -2.573422       -70.0264
  32   2.0000      -2.573413       -70.0261
  33   2.0000      -0.841962       -22.9109
  34   2.0000      -0.714302       -19.4372
  35   2.0000      -0.697766       -18.9872
  36   2.0000      -0.689775       -18.7697
  37   2.0000      -0.678959       -18.4754
  38   2.0000      -0.665200       -18.1010
  39   2.0000      -0.541640       -14.7388
  40   2.0000      -0.469261       -12.7692
  41   2.0000      -0.467290       -12.7156
  42   2.0000      -0.442151       -12.0315
  43   2.0000      -0.420705       -11.4480
  44   2.0000      -0.389690       -10.6040
  45   2.0000      -0.375630       -10.2214
  46   2.0000      -0.362475        -9.8634
  47   2.0000      -0.350225        -9.5301
  48   2.0000      -0.336851        -9.1662
  49   2.0000      -0.331666        -9.0251
  50   2.0000      -0.283985        -7.7276
  51   2.0000      -0.244712        -6.6589
  52   2.0000      -0.242050        -6.5865
  53   2.0000      -0.240512        -6.5447
  54   2.0000      -0.238896        -6.5007
  55   2.0000      -0.224191        -6.1005
  56   0.0000      -0.047948        -1.3047
  57   0.0000       0.075409         2.0520
  58   0.0000       0.122894         3.3441
  59   0.0000       0.131234         3.5711
  60   0.0000       0.134918         3.6713

MULLIKEN ATOMIC CHARGES
-----------------------
   0 C :    0.029769
   1 C :   -0.431635
   2 C :    0.009826
   3 C :    0.004691
   4 C :    0.121772
   5 Br:   -0.654244
   6 H :    0.043490
   7 H :    0.041507
   8 H :    0.041837
   9 H :    0.043140
  10 H :    0.039784
  11 H :    0.032606
  12 H :    0.034413
  13 H :    0.045063
  14 H :    0.041601
  15 H :    0.108174
  16 H :    0.107694
  17 Br:   -0.659488
Sum of atomic charges:   -1.0000000

LOEWDIN ATOMIC CHARGES
----------------------
   0 C :   -0.048421
   1 C :   -0.086963
   2 C :   -0.054687
   3 C :   -0.054946
   4 C :    0.105062
   5 Br:   -0.557668
   6 H :    0.023071
   7 H :    0.028012
   8 H :    0.020176
   9 H :    0.029683
  10 H :    0.029033
  11 H :    0.016383
  12 H :    0.013355
  13 H :    0.030197
  14 H :    0.028498
  15 H :    0.027566
  16 H :    0.024620
  17 Br:   -0.572971

  Mayer bond orders larger than 0.100000
B(  0-C ,  1-C ) :   1.0290 B(  0-C ,  6-H ) :   0.9589 B(  0-C ,  7-H ) :   0.9584
B(  0-C ,  8-H ) :   0.9530 B(  1-C ,  2-C ) :   1.0254 B(  1-C ,  3-C ) :   1.0235
B(  1-C ,  4-C ) :   1.0270 B(  2-C ,  9-H ) :   0.9638 B(  2-C , 10-H ) :   0.9661
B(  2-C , 11-H ) :   0.9568 B(  3-C , 12-H ) :   0.9523 B(  3-C , 13-H ) :   0.9651
B(  3-C , 14-H ) :   0.9636 B(  4-C ,  5-Br) :   0.4380 B(  4-C , 15-H ) :   0.9419
B(  4-C , 16-H ) :   0.9417 B(  4-C , 17-Br) :   0.3805

Dispersion correction           -0.017421902
FINAL SINGLE POINT ENERGY     -5344.025890774779

DIPOLE MOMENT
-------------
                                X             Y             Z
Electronic contribution:     10.06457     -17.48384      22.24330
Nuclear contribution   :    -10.80558      18.79654     -23.68059
                        -----------------------------------------
Total Dipole Moment    :     -0.74101       1.31270      -1.43729
                        -----------------------------------------
Magnitude (a.u.)       :      2.08281
Magnitude (Debye)      :      5.29408

Dispersion correction in the Hessian             ... done   (      0.9 sec)

VIBRATIONAL FREQUENCIES
-----------------------

Scaling factor for frequencies =  1.000000000  (already applied!)

   0:         0.00 cm**-1
   1:         0.00 cm**-1
   2:         0.00 cm**-1
   3:         0.00 cm**-1
   4:         0.00 cm**-1
   5:         0.00 cm**-1
   6:      -285.50 cm**-1 ***imaginary mode***
   7:        24.87 cm**-1
   8:        92.85 cm**-1
   9:       128.08 cm**-1
  10:       151.15 cm**-1
  11:       180.06 cm**-1
  12:       241.86 cm**-1
  13:       278.78 cm**-1
  14:       326.11 cm**-1
  15:       333.43 cm**-1
  16:       366.05 cm**-1
  17:       421.53 cm**-1
  18:       442.08 cm**-1
  19:       477.29 cm**-1
  20:       753.38 cm**-1
  21:       829.06 cm**-1
  22:       898.93 cm**-1
  23:       930.06 cm**-1
  24:       940.69 cm**-1
  25:       947.97 cm**-1
  26:       953.76 cm**-1
  27:       958.88 cm**-1
  28:      1034.92 cm**-1
  29:      1062.21 cm**-1
  30:      1211.12 cm**-1
  31:      1258.85 cm**-1
  32:      1268.79 cm**-1
  33:      1362.43 cm**-1
  34:      1365.03 cm**-1
  35:      1379.05 cm**-1
  36:      1416.41 cm**-1
  37:      1430.51 cm**-1
  38:      1436.90 cm**-1
  39:      1442.87 cm**-1
  40:      1450.55 cm**-1
  41:      1456.13 cm**-1
  42:      1476.10 cm**-1
  43:      3048.23 cm**-1
  44:      3051.16 cm**-1
  45:      3055.53 cm**-1
  46:      3144.82 cm**-1
  47:      3146.34 cm**-1
  48:      3157.27 cm**-1
  49:      3160.27 cm**-1
  50:      3169.68 cm**-1
  51:      3182.57 cm**-1
  52:      3257.30 cm**-1
  53:      3398.83 cm**-1

IR SPECTRUM
-----------

 Mode    freq (cm**-1)   T**2         TX         TY         TZ
-------------------------------------------------------------------
   7:        24.87    0.790613  ( -0.870395  -0.168541   0.067972)
   8:        92.85    2.972613  ( -0.412532   1.381975  -0.944763)
   9:       128.08   15.050845  ( -1.012716   2.932397  -2.329442)
  10:       151.15    5.695489  (  2.384220   0.029635  -0.100529)
  11:       180.06   20.983474  ( -0.314147   3.620292   2.788955)
  12:       241.86    1.325085  (  1.101576   0.254785   0.216102)
  13:       278.78   11.128339  (  0.408792  -2.763762  -1.822867)
  14:       326.11   22.841675  (  0.445769  -3.056828  -3.646747)
  15:       333.43   43.004563  (  0.430946   4.107150   5.094131)
  16:       366.05    0.604639  ( -0.158216   0.139145   0.748496)
  17:       421.53    3.560632  ( -1.680993   0.815813   0.263330)
  18:       442.08    6.000537  (  0.057254   2.350816   0.686238)
  19:       477.29  237.455071  ( -1.030651  11.957771   9.664602)
  20:       753.38   13.855565  (  1.000570   0.107313   3.583700)
  21:       829.06    2.362029  (  1.045237   0.995043   0.528581)
  22:       898.93  175.931929  ( -0.771675  -6.690419 -11.426931)
  23:       930.06    3.518461  (  1.512180  -0.846354   0.717954)
  24:       940.69   34.292577  ( -1.776048   4.837988  -2.780666)
  25:       947.97   60.229657  ( -1.370500   7.501331   1.442711)
  26:       953.76   15.142222  ( -1.907801   3.366304   0.412932)
  27:       958.88    0.431269  ( -0.182285  -0.272216  -0.569157)
  28:      1034.92   17.127447  (  0.376660  -3.547113  -2.098466)
  29:      1062.21    1.021488  ( -1.010646   0.005397  -0.007342)
  30:      1211.12    0.225385  ( -0.215412   0.370223   0.204739)
  31:      1258.85    1.579361  (  0.928584  -0.199973   0.822863)
  32:      1268.79    3.621748  (  0.890890   0.921697  -1.406605)
  33:      1362.43    8.626891  ( -2.350259  -0.717662  -1.608768)
  34:      1365.03   14.534684  (  2.973532   1.021276  -2.156336)
  35:      1379.05    3.732197  ( -0.104173  -0.702430   1.796646)
  36:      1416.41    1.680377  (  0.304457  -0.143608   1.251823)
  37:      1430.51    2.397496  (  1.415969   0.579853  -0.237271)
  38:      1436.90    2.939242  ( -0.715945   0.701730  -1.390769)
  39:      1442.87    3.978394  (  1.914871   0.277385  -0.484481)
  40:      1450.55   13.677753  ( -0.316064   2.223623   2.938258)
  41:      1456.13    4.825460  (  1.858148   1.162187  -0.148545)
  42:      1476.10   39.575296  (  2.378137  -3.753080   4.453555)
  43:      3048.23   44.691831  ( -6.050591  -1.591727   2.355543)
  44:      3051.16   12.515677  ( -2.064140  -2.281576  -1.746257)
  45:      3055.53   57.990959  (  3.731360  -5.144259   4.195773)
  46:      3144.82   23.215689  (  3.689416   0.610328   3.038321)
  47:      3146.34   25.526042  (  1.102568   2.242788  -4.390933)
  48:      3157.27   40.243408  ( -0.534416   1.032242  -6.236368)
  49:      3160.27   11.523870  ( -0.826234   3.279196  -0.296787)
  50:      3169.68    9.840846  (  1.346187  -2.549577  -1.236238)
  51:      3182.57   19.528245  (  4.203974   1.355643  -0.130675)
  52:      3257.30    6.136952  (  0.764479  -0.784550   2.221937)
  53:      3398.83    9.672057  (  2.906524   0.831321  -0.730123)

--------------------------
THERMOCHEMISTRY AT 298.15K
--------------------------

Temperature         ... 298.15 K
Pressure            ... 1.00 atm
Total Mass          ... 230.94 AMU

Throughout the following assumptions are being made:
  (1) The electronic state is orbitally nondegenerate
  (2) There are no thermally accessible electronically excited states
  (3) Hindered rotations indicated by low frequency modes are not
      treated as such but are treated as vibrations and this may
      cause some error
  (4) All equations used are the standard statistical mechanics
      equations for an ideal gas
  (5) All vibrations are strictly harmonic

freq.      24.87  E(vib)   ...       0.56
freq.      92.85  E(vib)   ...       0.47
freq.     128.08  E(vib)   ...       0.43
freq.     151.15  E(vib)   ...       0.40
freq.     180.06  E(vib)   ...       0.37
freq.     241.86  E(vib)   ...       0.31
freq.     278.78  E(vib)   ...       0.28
freq.     326.11  E(vib)   ...       0.24
freq.     333.43  E(vib)   ...       0.24
freq.     366.05  E(vib)   ...       0.22
freq.     421.53  E(vib)   ...       0.18
freq.     442.08  E(vib)   ...       0.17
freq.     477.29  E(vib)   ...       0.15
freq.     753.38  E(vib)   ...       0.06
freq.     829.06  E(vib)   ...       0.04
freq.     898.93  E(vib)   ...       0.03
freq.     930.06  E(vib)   ...       0.03
freq.     940.69  E(vib)   ...       0.03
freq.     947.97  E(vib)   ...       0.03
freq.     953.76  E(vib)   ...       0.03
freq.     958.88  E(vib)   ...       0.03
freq.    1034.92  E(vib)   ...       0.02
freq.    1062.21  E(vib)   ...       0.02
freq.    1211.12  E(vib)   ...       0.01
freq.    1258.85  E(vib)   ...       0.01
freq.    1268.79  E(vib)   ...       0.01
freq.    1362.43  E(vib)   ...       0.01
freq.    1365.03  E(vib)   ...       0.01
freq.    1379.05  E(vib)   ...       0.01
freq.    1416.41  E(vib)   ...       0.00
freq.    1430.51  E(vib)   ...       0.00
freq.    1436.90  E(vib)   ...       0.00
freq.    1442.87  E(vib)   ...       0.00
freq.    1450.55  E(vib)   ...       0.00
freq.    1456.13  E(vib)   ...       0.00
freq.    1476.10  E(vib)   ...       0.00
freq.    3048.23  E(vib)   ...       0.00
freq.    3051.16  E(vib)   ...       0.00
freq.    3055.53  E(vib)   ...       0.00
freq.    3144.82  E(vib)   ...       0.00
freq.    3146.34  E(vib)   ...       0.00
freq.    3157.27  E(vib)   ...       0.00
freq.    3160.27  E(vib)   ...       0.00
freq.    3169.68  E(vib)   ...       0.00
freq.    3182.57  E(vib)   ...       0.00
freq.    3257.30  E(vib)   ...       0.00
freq.    3398.83  E(vib)   ...       0.00

------------
INNER ENERGY
------------

The inner energy is: U= E(el) + E(ZPE) + E(vib) + E(rot) + E(trans)
    E(el)   - is the total energy from the electronic structure calculation
              = E(kin-el) + E(nuc-el) + E(el-el) + E(nuc-nuc)
    E(ZPE)  - the the zero temperature vibrational energy from the frequency calculation
    E(vib)  - the the finite temperature correction to E(ZPE) due to population
              of excited vibrational states
    E(rot)  - is the rotational thermal energy
    E(trans)- is the translational thermal energy

Summary of contributions to the inner energy U:
Electronic energy                ...  -5344.02589077 Eh
Zero point energy                ...      0.14922163 Eh      93.64 kcal/mol
Thermal vibrational correction   ...      0.00702865 Eh       4.41 kcal/mol
Thermal rotational correction    ...      0.00141627 Eh       0.89 kcal/mol
Thermal translational correction ...      0.00141627 Eh       0.89 kcal/mol
-----------------------------------------------------------------------
Total thermal energy                  -5343.86680795 Eh

Summary of corrections to the electronic energy:
(perhaps to be used in another calculation)
Total thermal correction                  0.00986119 Eh       6.19 kcal/mol
Non-thermal (ZPE) correction              0.14922163 Eh      93.64 kcal/mol
-----------------------------------------------------------------------
Total correction                          0.15908282 Eh      99.83 kcal/mol

--------
ENTHALPY
--------

The enthalpy is H = U + kB*T
                kB is Boltzmann's constant
Total free energy                 ...  -5343.86680795 Eh
Thermal Enthalpy correction       ...      0.00094421 Eh       0.59 kcal/mol
-----------------------------------------------------------------------
Total Enthalpy                    ...  -5343.86586374 Eh

Note: Only C1 symmetry has been detected, increase convergence thresholds
      if your molecule has a higher symmetry. Symmetry factor of 1.0 is
      used for the rotational entropy correction.

Note: Rotational entropy computed according to Herzberg
Infrared and Raman Spectra, Chapter V,1, Van Nostrand Reinhold, 1945
Point Group:  C1, Symmetry Number:   1
Rotational constants in cm-1:     0.042819     0.015472     0.012326

Vibrational entropy computed according to the QRRHO of S. Grimme
Chem.Eur.J. 2012 18 9955

-------
ENTROPY
-------

The entropy contributions are T*S = T*(S(el)+S(vib)+S(rot)+S(trans))
     S(el)   - electronic entropy
     S(vib)  - vibrational entropy
     S(rot)  - rotational entropy
     S(trans)- translational entropy
The entropies will be listed as mutliplied by the temperature to get
units of energy

Electronic entropy                ...      0.00000000 Eh      0.00 kcal/mol
Vibrational entropy               ...      0.01247643 Eh      7.83 kcal/mol
Rotational entropy                ...      0.01504160 Eh      9.44 kcal/mol
Translational entropy             ...      0.02005666 Eh     12.59 kcal/mol
-----------------------------------------------------------------------
Final entropy term                ...      0.04757469 Eh     29.85 kcal/mol

In case the symmetry of your molecule has not been determined correctly
or in case you have a reason to use a different symmetry number we print
out the resulting rotational entropy values for sn=1,12 :
 --------------------------------------------------------
|  sn= 1 | S(rot)=       0.01504160 Eh      9.44 kcal/mol|
|  sn= 2 | S(rot)=       0.01438715 Eh      9.03 kcal/mol|
|  sn= 3 | S(rot)=       0.01400431 Eh      8.79 kcal/mol|
|  sn= 4 | S(rot)=       0.01373269 Eh      8.62 kcal/mol|
|  sn= 5 | S(rot)=       0.01352200 Eh      8.49 kcal/mol|
|  sn= 6 | S(rot)=       0.01334986 Eh      8.38 kcal/mol|
|  sn= 7 | S(rot)=       0.01320431 Eh      8.29 kcal/mol|
|  sn= 8 | S(rot)=       0.01307823 Eh      8.21 kcal/mol|
|  sn= 9 | S(rot)=       0.01296702 Eh      8.14 kcal/mol|
|  sn=10 | S(rot)=       0.01286755 Eh      8.07 kcal/mol|
|  sn=11 | S(rot)=       0.01277756 Eh      8.02 kcal/mol|
|  sn=12 | S(rot)=       0.01269540 Eh      7.97 kcal/mol|
 --------------------------------------------------------

-------------------

                             ****ORCA TERMINATED NORMALLY****
TOTAL RUN TIME: 0 days 0 hours 10 minutes 55 seconds 740 msec
