                         Program Version 4.2.1 -  RELEASE  -
|  1> ! OptTS Freq PBE0 RIJCOSX D3BJ def2-SVP def2/J CPCM(Acetone)
|  2> %geom
|  3> modify_internal
|  4> { B 3 14 A } end
|  5> end
|  6> %geom
|  7> modify_internal
|  8> { B 3 4 A } end
|  9> end
| 10> %output
| 11> xyzfile=True
| 12> end
| 13> %scf
| 14> maxiter 250
| 15> end
| 16> %output
| 17> Print[P_Hirshfeld] = 1
| 18> end
| 19> % maxcore
| 20> 4000
| 21> %geom
| 22> Calc_Hess true
| 23> Recalc_Hess 30
| 24> Trust -0.1
| 25> MaxIter 150
| 26> end
| 27> %pal nprocs 4
| 28> end
| 29> *xyz -1 1
| 30> C     2.39274   0.14302  -0.92768
| 31> C     1.02683   0.78234  -0.69679
| 32> C     0.62904   1.74746  -1.80892
| 33> C    -0.04097  -0.25020  -0.43572
| 34> I   -0.71578   0.18185   1.88201
| 35> H     2.37224  -0.46166  -1.84606
| 36> H     3.16903   0.91782  -1.02107
| 37> H     2.66760  -0.51504  -0.08816
| 38> H     1.09277   1.37060   0.23255
| 39> H    -0.32014   2.25414  -1.57136
| 40> H     1.39842   2.52300  -1.94482
| 41> H     0.50311   1.19464  -2.75088
| 42> H    -1.07118  -0.06902  -0.72448
| 43> H     0.21935  -1.25460  -0.11997
| 44> Cl   -0.02967  -1.40001  -2.65132
| 45> *
| 46>
| 47>                          ****END OF INPUT****
 Total Charge           Charge          ....   -1
 Multiplicity           Mult            ....    1
 Number of Electrons    NEL             ....   76
Dispersion correction           -0.013952988
FINAL SINGLE POINT ENERGY      -915.307620613590
Dispersion correction            ... done
Dispersion correction in the Hessian             ... done   (      0.8 sec)
Dispersion correction           -0.013906169
FINAL SINGLE POINT ENERGY      -915.308524140207
Dispersion correction            ... done
Dispersion correction           -0.013858697
FINAL SINGLE POINT ENERGY      -915.309301506583
FINAL SINGLE POINT ENERGY      -915.309889440512
FINAL SINGLE POINT ENERGY      -915.310406623577
FINAL SINGLE POINT ENERGY      -915.310777990399
FINAL SINGLE POINT ENERGY      -915.311058397691
FINAL SINGLE POINT ENERGY      -915.311170914368
Dispersion correction           -0.013614697
FINAL SINGLE POINT ENERGY      -915.311256755414
Dispersion correction            ... done
Dispersion correction           -0.013589860
FINAL SINGLE POINT ENERGY      -915.311255765438
Dispersion correction            ... done
                    ***********************HURRAY********************

CARTESIAN COORDINATES (ANGSTROEM)
---------------------------------
  C      2.402184    0.139700   -0.951751
  C      1.043323    0.786254   -0.691532
  C      0.623289    1.752535   -1.794380
  C     -0.027492   -0.243576   -0.424054
  I     -0.875862    0.229637    1.997273
  H      2.365417   -0.448817   -1.879873
  H      3.181480    0.912237   -1.039587
  H      2.683479   -0.534845   -0.127721
  H      1.143003    1.377063    0.232939
  H     -0.308664    2.275177   -1.525101
  H      1.399726    2.514257   -1.963473
  H      0.455893    1.194448   -2.727145
  H     -1.042234   -0.091473   -0.778963
  H      0.237974   -1.251331   -0.117773
  Cl     0.011875   -1.446926   -2.681528

 Multiplicity           Mult            ....    1
 Number of Electrons    NEL             ....   76
 Basis Dimension        Dim             ....  145

ORBITAL ENERGIES
----------------

  NO   OCC          E(Eh)            E(eV)
   0   2.0000    -101.560170     -2763.5927
   1   2.0000     -10.287801      -279.9453
   2   2.0000     -10.235582      -278.5244
   3   2.0000     -10.210503      -277.8419
   4   2.0000     -10.210030      -277.8290
   5   2.0000      -9.407440      -255.9895
   6   2.0000      -7.144820      -194.4204
   7   2.0000      -7.142072      -194.3457
   8   2.0000      -7.142031      -194.3446
   9   2.0000      -6.839223      -186.1047
  10   2.0000      -4.851059      -132.0040
  11   2.0000      -4.844631      -131.8291
  12   2.0000      -4.844541      -131.8267
  13   2.0000      -1.877689       -51.0945
  14   2.0000      -1.876092       -51.0510
  15   2.0000      -1.875955       -51.0473
  16   2.0000      -1.870490       -50.8986
  17   2.0000      -1.870487       -50.8985
  18   2.0000      -0.820575       -22.3290
  19   2.0000      -0.711880       -19.3712
  20   2.0000      -0.687539       -18.7089
  21   2.0000      -0.684980       -18.6393
  22   2.0000      -0.633309       -17.2332
  23   2.0000      -0.563560       -15.3352
  24   2.0000      -0.463978       -12.6255
  25   2.0000      -0.458943       -12.4885
  26   2.0000      -0.441630       -12.0174
  27   2.0000      -0.386718       -10.5231
  28   2.0000      -0.373417       -10.1612
  29   2.0000      -0.358796        -9.7633
  30   2.0000      -0.339702        -9.2438
  31   2.0000      -0.338939        -9.2230
  32   2.0000      -0.281966        -7.6727
  33   2.0000      -0.240915        -6.5556
  34   2.0000      -0.239019        -6.5040
  35   2.0000      -0.236672        -6.4402
  36   2.0000      -0.235642        -6.4122
  37   2.0000      -0.221370        -6.0238
  38   0.0000      -0.040604        -1.1049
  39   0.0000       0.085743         2.3332
  40   0.0000       0.125413         3.4127
  41   0.0000       0.132759         3.6126
  42   0.0000       0.141988         3.8637

MULLIKEN ATOMIC CHARGES
-----------------------
   0 C :   -0.059560
   1 C :   -0.165961
   2 C :   -0.050595
   3 C :   -0.030630
   4 I :   -0.570231
   5 H :    0.027217
   6 H :    0.043229
   7 H :    0.046008
   8 H :    0.075547
   9 H :    0.042367
  10 H :    0.042502
  11 H :    0.024959
  12 H :    0.115247
  13 H :    0.114030
  14 Cl:   -0.654130
Sum of atomic charges:   -1.0000000

LOEWDIN ATOMIC CHARGES
----------------------
   0 C :   -0.069307
   1 C :   -0.074564
   2 C :   -0.068074
   3 C :    0.041394
   4 I :   -0.468785
   5 H :    0.011196
   6 H :    0.028458
   7 H :    0.029288
   8 H :    0.039109
   9 H :    0.028699
  10 H :    0.028445
  11 H :    0.010597
  12 H :    0.025872
  13 H :    0.026680
  14 Cl:   -0.589007

  Mayer bond orders larger than 0.100000
B(  0-C ,  1-C ) :   1.0529 B(  0-C ,  5-H ) :   0.9560 B(  0-C ,  6-H ) :   0.9656
B(  0-C ,  7-H ) :   0.9669 B(  1-C ,  2-C ) :   1.0523 B(  1-C ,  3-C ) :   1.0212
B(  1-C ,  8-H ) :   0.9170 B(  2-C ,  9-H ) :   0.9666 B(  2-C , 10-H ) :   0.9676
B(  2-C , 11-H ) :   0.9542 B(  3-C ,  4-I ) :   0.5839 B(  3-C , 12-H ) :   0.9467
B(  3-C , 13-H ) :   0.9473 B(  3-C , 14-Cl) :   0.2868

Dispersion correction           -0.013588014
FINAL SINGLE POINT ENERGY      -915.311255431188

DIPOLE MOMENT
-------------
                                X             Y             Z
Electronic contribution:    -56.96595       6.86909     122.07310
Nuclear contribution   :     57.51487      -5.23748    -120.19947
                        -----------------------------------------
Total Dipole Moment    :      0.54892       1.63161       1.87363
                        -----------------------------------------
Magnitude (a.u.)       :      2.54440
Magnitude (Debye)      :      6.46734

Dispersion correction in the Hessian             ... done   (      0.7 sec)

VIBRATIONAL FREQUENCIES
-----------------------

Scaling factor for frequencies =  1.000000000  (already applied!)

   0:         0.00 cm**-1
   1:         0.00 cm**-1
   2:         0.00 cm**-1
   3:         0.00 cm**-1
   4:         0.00 cm**-1
   5:         0.00 cm**-1
   6:      -341.69 cm**-1 ***imaginary mode***
   7:        38.01 cm**-1
   8:       112.29 cm**-1
   9:       140.25 cm**-1
  10:       154.47 cm**-1
  11:       188.41 cm**-1
  12:       241.84 cm**-1
  13:       262.03 cm**-1
  14:       362.85 cm**-1
  15:       391.33 cm**-1
  16:       501.75 cm**-1
  17:       808.73 cm**-1
  18:       823.67 cm**-1
  19:       915.02 cm**-1
  20:       923.79 cm**-1
  21:       952.89 cm**-1
  22:       974.32 cm**-1
  23:       978.43 cm**-1
  24:      1085.51 cm**-1
  25:      1191.63 cm**-1
  26:      1207.84 cm**-1
  27:      1306.00 cm**-1
  28:      1311.55 cm**-1
  29:      1362.83 cm**-1
  30:      1370.65 cm**-1
  31:      1415.52 cm**-1
  32:      1437.07 cm**-1
  33:      1449.06 cm**-1
  34:      1456.86 cm**-1
  35:      1473.95 cm**-1
  36:      3046.87 cm**-1
  37:      3050.87 cm**-1
  38:      3083.71 cm**-1
  39:      3141.44 cm**-1
  40:      3144.43 cm**-1
  41:      3162.89 cm**-1
  42:      3165.68 cm**-1
  43:      3242.58 cm**-1
  44:      3375.17 cm**-1

IR SPECTRUM
-----------

 Mode    freq (cm**-1)   T**2         TX         TY         TZ
-------------------------------------------------------------------
   7:        38.01    1.442023  (  0.856525  -0.648780   0.536165)
   8:       112.29   12.089054  ( -2.378912  -1.662273   1.914857)
   9:       140.25   16.369695  ( -0.727321  -2.378174  -3.191393)
  10:       154.47    9.014174  ( -2.028514   2.129216  -0.604769)
  11:       188.41   13.456535  ( -2.704397  -2.101271   1.314319)
  12:       241.84    3.923970  ( -0.929438   0.312594  -1.721162)
  13:       262.03   14.534738  ( -1.012202   1.281487   3.444993)
  14:       362.85    8.444381  (  1.785619   0.599477  -2.212820)
  15:       391.33    1.288478  (  0.902545  -0.679907   0.107779)
  16:       501.75  186.053776  (  2.444096  -4.495689 -12.643929)
  17:       808.73   11.529356  (  2.483189  -2.186223   0.763909)
  18:       823.67   18.667435  (  3.092719   2.494518  -1.697029)
  19:       915.02    6.403684  (  0.892149  -1.046489   2.124292)
  20:       923.79  243.710032  ( -4.117332   4.063191  14.499934)
  21:       952.89    1.368854  (  0.809961  -0.787521   0.304346)
  22:       974.32    0.613857  ( -0.334171  -0.472713   0.527949)
  23:       978.43   30.093403  ( -4.055581  -3.068002   2.057434)
  24:      1085.51   33.833485  (  2.957112   0.519316  -4.981896)
  25:      1191.63    0.314977  (  0.421956  -0.175059   0.326014)
  26:      1207.84    2.838416  (  0.410595  -0.517498  -1.549846)
  27:      1306.00    5.725093  (  0.995505  -0.146271  -2.170868)
  28:      1311.55    0.127593  ( -0.206793   0.143515  -0.253442)
  29:      1362.83   14.760842  ( -2.866709   2.271068  -1.176891)
  30:      1370.65    7.709552  ( -1.432490  -1.870400   1.469397)
  31:      1415.52    8.295544  (  0.615278  -0.743164  -2.713795)
  32:      1437.07    0.542050  ( -0.211565   0.387279  -0.589326)
  33:      1449.06   16.072269  (  0.937646  -0.827679  -3.808941)
  34:      1456.86    0.999676  ( -0.212025   0.880800   0.422981)
  35:      1473.95   16.891330  (  3.012327   2.731150  -0.598364)
  36:      3046.87   55.807943  ( -3.774368   5.636896  -3.128497)
  37:      3050.87   36.315838  ( -5.601467  -1.684147   1.450191)
  38:      3083.71   22.208527  ( -0.951119   1.267792   4.438086)
  39:      3141.44   33.318078  (  5.525225   0.384876  -1.625372)
  40:      3144.43   37.202250  ( -1.907032  -4.632260   3.479604)
  41:      3162.89    1.286324  (  0.413560   0.825638   0.658494)
  42:      3165.68   15.616034  ( -0.992247  -2.322735  -3.039142)
  43:      3242.58   19.858751  (  1.897127  -0.126439  -4.030344)
  44:      3375.17    9.443892  ( -2.116556   1.828787  -1.272643)

--------------------------
THERMOCHEMISTRY AT 298.15K
--------------------------

Temperature         ... 298.15 K
Pressure            ... 1.00 atm
Total Mass          ... 219.47 AMU

Throughout the following assumptions are being made:
  (1) The electronic state is orbitally nondegenerate
  (2) There are no thermally accessible electronically excited states
  (3) Hindered rotations indicated by low frequency modes are not
      treated as such but are treated as vibrations and this may
      cause some error
  (4) All equations used are the standard statistical mechanics
      equations for an ideal gas
  (5) All vibrations are strictly harmonic

freq.      38.01  E(vib)   ...       0.54
freq.     112.29  E(vib)   ...       0.45
freq.     140.25  E(vib)   ...       0.41
freq.     154.47  E(vib)   ...       0.40
freq.     188.41  E(vib)   ...       0.36
freq.     241.84  E(vib)   ...       0.31
freq.     262.03  E(vib)   ...       0.29
freq.     362.85  E(vib)   ...       0.22
freq.     391.33  E(vib)   ...       0.20
freq.     501.75  E(vib)   ...       0.14
freq.     808.73  E(vib)   ...       0.05
freq.     823.67  E(vib)   ...       0.05
freq.     915.02  E(vib)   ...       0.03
freq.     923.79  E(vib)   ...       0.03
freq.     952.89  E(vib)   ...       0.03
freq.     974.32  E(vib)   ...       0.03
freq.     978.43  E(vib)   ...       0.03
freq.    1085.51  E(vib)   ...       0.02
freq.    1191.63  E(vib)   ...       0.01
freq.    1207.84  E(vib)   ...       0.01
freq.    1306.00  E(vib)   ...       0.01
freq.    1311.55  E(vib)   ...       0.01
freq.    1362.83  E(vib)   ...       0.01
freq.    1370.65  E(vib)   ...       0.01
freq.    1415.52  E(vib)   ...       0.00
freq.    1437.07  E(vib)   ...       0.00
freq.    1449.06  E(vib)   ...       0.00
freq.    1456.86  E(vib)   ...       0.00
freq.    1473.95  E(vib)   ...       0.00
freq.    3046.87  E(vib)   ...       0.00
freq.    3050.87  E(vib)   ...       0.00
freq.    3083.71  E(vib)   ...       0.00
freq.    3141.44  E(vib)   ...       0.00
freq.    3144.43  E(vib)   ...       0.00
freq.    3162.89  E(vib)   ...       0.00
freq.    3165.68  E(vib)   ...       0.00
freq.    3242.58  E(vib)   ...       0.00
freq.    3375.17  E(vib)   ...       0.00

------------
INNER ENERGY
------------

The inner energy is: U= E(el) + E(ZPE) + E(vib) + E(rot) + E(trans)
    E(el)   - is the total energy from the electronic structure calculation
              = E(kin-el) + E(nuc-el) + E(el-el) + E(nuc-nuc)
    E(ZPE)  - the the zero temperature vibrational energy from the frequency calculation
    E(vib)  - the the finite temperature correction to E(ZPE) due to population
              of excited vibrational states
    E(rot)  - is the rotational thermal energy
    E(trans)- is the translational thermal energy

Summary of contributions to the inner energy U:
Electronic energy                ...   -915.31125543 Eh
Zero point energy                ...      0.12131735 Eh      76.13 kcal/mol
Thermal vibrational correction   ...      0.00580528 Eh       3.64 kcal/mol
Thermal rotational correction    ...      0.00141627 Eh       0.89 kcal/mol
Thermal translational correction ...      0.00141627 Eh       0.89 kcal/mol
-----------------------------------------------------------------------
Total thermal energy                   -915.18130025 Eh

Summary of corrections to the electronic energy:
(perhaps to be used in another calculation)
Total thermal correction                  0.00863782 Eh       5.42 kcal/mol
Non-thermal (ZPE) correction              0.12131735 Eh      76.13 kcal/mol
-----------------------------------------------------------------------
Total correction                          0.12995518 Eh      81.55 kcal/mol

--------
ENTHALPY
--------

The enthalpy is H = U + kB*T
                kB is Boltzmann's constant
Total free energy                 ...   -915.18130025 Eh
Thermal Enthalpy correction       ...      0.00094421 Eh       0.59 kcal/mol
-----------------------------------------------------------------------
Total Enthalpy                    ...   -915.18035604 Eh

Note: Only C1 symmetry has been detected, increase convergence thresholds
      if your molecule has a higher symmetry. Symmetry factor of 1.0 is
      used for the rotational entropy correction.

Note: Rotational entropy computed according to Herzberg
Infrared and Raman Spectra, Chapter V,1, Van Nostrand Reinhold, 1945
Point Group:  C1, Symmetry Number:   1
Rotational constants in cm-1:     0.074557     0.017482     0.015659

Vibrational entropy computed according to the QRRHO of S. Grimme
Chem.Eur.J. 2012 18 9955

-------
ENTROPY
-------

The entropy contributions are T*S = T*(S(el)+S(vib)+S(rot)+S(trans))
     S(el)   - electronic entropy
     S(vib)  - vibrational entropy
     S(rot)  - rotational entropy
     S(trans)- translational entropy
The entropies will be listed as mutliplied by the temperature to get
units of energy

Electronic entropy                ...      0.00000000 Eh      0.00 kcal/mol
Vibrational entropy               ...      0.01043277 Eh      6.55 kcal/mol
Rotational entropy                ...      0.01460915 Eh      9.17 kcal/mol
Translational entropy             ...      0.01998449 Eh     12.54 kcal/mol
-----------------------------------------------------------------------
Final entropy term                ...      0.04502641 Eh     28.25 kcal/mol

In case the symmetry of your molecule has not been determined correctly
or in case you have a reason to use a different symmetry number we print
out the resulting rotational entropy values for sn=1,12 :
 --------------------------------------------------------
|  sn= 1 | S(rot)=       0.01460915 Eh      9.17 kcal/mol|
|  sn= 2 | S(rot)=       0.01395470 Eh      8.76 kcal/mol|
|  sn= 3 | S(rot)=       0.01357187 Eh      8.52 kcal/mol|
|  sn= 4 | S(rot)=       0.01330024 Eh      8.35 kcal/mol|
|  sn= 5 | S(rot)=       0.01308955 Eh      8.21 kcal/mol|
|  sn= 6 | S(rot)=       0.01291741 Eh      8.11 kcal/mol|
|  sn= 7 | S(rot)=       0.01277186 Eh      8.01 kcal/mol|
|  sn= 8 | S(rot)=       0.01264579 Eh      7.94 kcal/mol|
|  sn= 9 | S(rot)=       0.01253458 Eh      7.87 kcal/mol|
|  sn=10 | S(rot)=       0.01243510 Eh      7.80 kcal/mol|
|  sn=11 | S(rot)=       0.01234511 Eh      7.75 kcal/mol|
|  sn=12 | S(rot)=       0.01226295 Eh      7.70 kcal/mol|
 --------------------------------------------------------

-------------------
GIBBS FREE ENERGY
-------------------

The Gibbs free energy is G = H - T*S

Total enthalpy                    ...   -915.18035604 Eh
Total entropy correction          ...     -0.04502641 Eh    -28.25 kcal/mol
-----------------------------------------------------------------------
Final Gibbs free energy         ...   -915.22538246 Eh

                             ****ORCA TERMINATED NORMALLY****
TOTAL RUN TIME: 0 days 0 hours 5 minutes 18 seconds 60 msec
