                         Program Version 4.2.1 -  RELEASE  -
|  1> ! OptTS Freq PBE0 RIJCOSX D3BJ def2-SVP def2/J CPCM(DMF)
|  2> %geom
|  3> modify_internal
|  4> { B 3 14 A } end
|  5> end
|  6> %geom
|  7> modify_internal
|  8> { B 3 4 A } end
|  9> end
| 10> %output
| 11> xyzfile=True
| 12> end
| 13> %scf
| 14> maxiter 250
| 15> end
| 16> %output
| 17> Print[P_Hirshfeld] = 1
| 18> end
| 19> % maxcore
| 20> 4000
| 21> %geom
| 22> Calc_Hess true
| 23> Recalc_Hess 30
| 24> Trust -0.1
| 25> MaxIter 150
| 26> end
| 27> %pal nprocs 4
| 28> end
| 29> *xyz -1 1
| 30> C     2.39274   0.14302  -0.92768
| 31> C     1.02683   0.78234  -0.69679
| 32> C     0.62904   1.74746  -1.80892
| 33> C    -0.04097  -0.25020  -0.43572
| 34> Br   -0.71578   0.18185   1.88201
| 35> H     2.37224  -0.46166  -1.84606
| 36> H     3.16903   0.91782  -1.02107
| 37> H     2.66760  -0.51504  -0.08816
| 38> H     1.09277   1.37060   0.23255
| 39> H    -0.32014   2.25414  -1.57136
| 40> H     1.39842   2.52300  -1.94482
| 41> H     0.50311   1.19464  -2.75088
| 42> H    -1.07118  -0.06902  -0.72448
| 43> H     0.21935  -1.25460  -0.11997
| 44> Cl   -0.02967  -1.40001  -2.65132
| 45> *
| 46>
| 47>                          ****END OF INPUT****
 Total Charge           Charge          ....   -1
 Multiplicity           Mult            ....    1
 Number of Electrons    NEL             ....   86
Dispersion correction           -0.012931910
FINAL SINGLE POINT ENERGY     -3191.142383810787
Dispersion correction            ... done
Dispersion correction in the Hessian             ... done   (      0.7 sec)
                    ***********************HURRAY********************

CARTESIAN COORDINATES (ANGSTROEM)
---------------------------------
  C      2.393135    0.143015   -0.928376
  C      1.027212    0.782147   -0.696901
  C      0.628941    1.747774   -1.808413
  C     -0.040567   -0.250075   -0.435580
  Br    -0.719300    0.182808    1.881400
  H      2.373095   -0.460363   -1.847609
  H      3.169308    0.918008   -1.020641
  H      2.668069   -0.516178   -0.089792
  H      1.093736    1.370152    0.232591
  H     -0.320043    2.254553   -1.570336
  H      1.398389    2.523151   -1.944423
  H      0.502627    1.195539   -2.750669
  H     -1.070640   -0.069170   -0.725042
  H      0.219737   -1.254137   -0.118563
  Cl    -0.030310   -1.402885   -2.650316

 Multiplicity           Mult            ....    1
 Number of Electrons    NEL             ....   86
 Basis Dimension        Dim             ....  151

ORBITAL ENERGIES
----------------

  NO   OCC          E(Eh)            E(eV)
   0   2.0000    -483.115333    -13146.2365
   1   2.0000    -101.567062     -2763.7803
   2   2.0000     -62.550902     -1702.0966
   3   2.0000     -56.339463     -1533.0747
   4   2.0000     -56.338295     -1533.0429
   5   2.0000     -56.338209     -1533.0406
   6   2.0000     -10.291944      -280.0580
   7   2.0000     -10.236174      -278.5404
   8   2.0000     -10.212691      -277.9015
   9   2.0000     -10.212000      -277.8826
  10   2.0000      -9.414408      -256.1791
  11   2.0000      -8.694862      -236.5992
  12   2.0000      -7.151954      -194.6146
  13   2.0000      -7.148942      -194.5326
  14   2.0000      -7.148889      -194.5312
  15   2.0000      -6.504746      -177.0031
  16   2.0000      -6.499306      -176.8551
  17   2.0000      -6.499220      -176.8528
  18   2.0000      -2.590958       -70.5035
  19   2.0000      -2.589518       -70.4644
  20   2.0000      -2.589443       -70.4623
  21   2.0000      -2.585073       -70.3434
  22   2.0000      -2.585062       -70.3431
  23   2.0000      -0.823489       -22.4083
  24   2.0000      -0.722958       -19.6727
  25   2.0000      -0.711371       -19.3574
  26   2.0000      -0.687032       -18.6951
  27   2.0000      -0.665036       -18.0965
  28   2.0000      -0.565034       -15.3754
  29   2.0000      -0.466407       -12.6916
  30   2.0000      -0.461777       -12.5656
  31   2.0000      -0.443801       -12.0764
  32   2.0000      -0.388897       -10.5824
  33   2.0000      -0.375982       -10.2310
  34   2.0000      -0.361636        -9.8406
  35   2.0000      -0.342689        -9.3250
  36   2.0000      -0.341069        -9.2810
  37   2.0000      -0.291544        -7.9333
  38   2.0000      -0.252431        -6.8690
  39   2.0000      -0.250417        -6.8142
  40   2.0000      -0.243789        -6.6338
  41   2.0000      -0.242981        -6.6118
  42   2.0000      -0.230042        -6.2598
  43   0.0000      -0.029153        -0.7933
  44   0.0000       0.083089         2.2610
  45   0.0000       0.126687         3.4473
  46   0.0000       0.130953         3.5634
  47   0.0000       0.141834         3.8595

MULLIKEN ATOMIC CHARGES
-----------------------
   0 C :   -0.060898
   1 C :   -0.170207
   2 C :   -0.052482
   3 C :    0.045304
   4 Br:   -0.617800
   5 H :    0.026316
   6 H :    0.043826
   7 H :    0.045179
   8 H :    0.068409
   9 H :    0.041946
  10 H :    0.043251
  11 H :    0.024203
  12 H :    0.101657
  13 H :    0.102230
  14 Cl:   -0.640932
Sum of atomic charges:   -1.0000000

LOEWDIN ATOMIC CHARGES
----------------------
   0 C :   -0.069644
   1 C :   -0.076349
   2 C :   -0.068729
   3 C :    0.069188
   4 Br:   -0.511456
   5 H :    0.011802
   6 H :    0.028836
   7 H :    0.029052
   8 H :    0.037653
   9 H :    0.028656
  10 H :    0.028571
  11 H :    0.009627
  12 H :    0.025020
  13 H :    0.024148
  14 Cl:   -0.566374

  Mayer bond orders larger than 0.100000
B(  0-C ,  1-C ) :   1.0518 B(  0-C ,  5-H ) :   0.9575 B(  0-C ,  6-H ) :   0.9661
B(  0-C ,  7-H ) :   0.9668 B(  1-C ,  2-C ) :   1.0509 B(  1-C ,  3-C ) :   1.0316
B(  1-C ,  8-H ) :   0.9101 B(  2-C ,  9-H ) :   0.9669 B(  2-C , 10-H ) :   0.9673
B(  2-C , 11-H ) :   0.9548 B(  3-C ,  4-Br) :   0.4983 B(  3-C , 12-H ) :   0.9504
B(  3-C , 13-H ) :   0.9500 B(  3-C , 14-Cl) :   0.3291

Dispersion correction           -0.012927947
FINAL SINGLE POINT ENERGY     -3191.142385788012

DIPOLE MOMENT
-------------
                                X             Y             Z
Electronic contribution:    -15.26173      -4.31431      24.08246
Nuclear contribution   :     16.12972       5.77833     -23.13833
                        -----------------------------------------
Total Dipole Moment    :      0.86798       1.46402       0.94413
                        -----------------------------------------
Magnitude (a.u.)       :      1.94631
Magnitude (Debye)      :      4.94712

Dispersion correction in the Hessian             ... done   (      0.8 sec)

VIBRATIONAL FREQUENCIES
-----------------------

Scaling factor for frequencies =  1.000000000  (already applied!)

   0:         0.00 cm**-1
   1:         0.00 cm**-1
   2:         0.00 cm**-1
   3:         0.00 cm**-1
   4:         0.00 cm**-1
   5:         0.00 cm**-1
   6:      -372.25 cm**-1 ***imaginary mode***
   7:        40.14 cm**-1
   8:       126.37 cm**-1
   9:       158.39 cm**-1
  10:       163.79 cm**-1
  11:       193.49 cm**-1
  12:       241.57 cm**-1
  13:       258.28 cm**-1
  14:       364.97 cm**-1
  15:       395.53 cm**-1
  16:       503.77 cm**-1
  17:       824.01 cm**-1
  18:       846.30 cm**-1
  19:       915.43 cm**-1
  20:       947.11 cm**-1
  21:       950.51 cm**-1
  22:       973.62 cm**-1
  23:       980.93 cm**-1
  24:      1082.16 cm**-1
  25:      1190.92 cm**-1
  26:      1206.72 cm**-1
  27:      1306.33 cm**-1
  28:      1314.53 cm**-1
  29:      1364.60 cm**-1
  30:      1370.87 cm**-1
  31:      1413.88 cm**-1
  32:      1437.42 cm**-1
  33:      1449.17 cm**-1
  34:      1455.40 cm**-1
  35:      1473.23 cm**-1
  36:      3047.96 cm**-1
  37:      3051.35 cm**-1
  38:      3084.33 cm**-1
  39:      3141.52 cm**-1
  40:      3144.57 cm**-1
  41:      3162.91 cm**-1
  42:      3166.27 cm**-1
  43:      3250.55 cm**-1
  44:      3386.13 cm**-1

IR SPECTRUM
-----------

 Mode    freq (cm**-1)   T**2         TX         TY         TZ
-------------------------------------------------------------------
   7:        40.14    1.624923  ( -0.870045   0.747675  -0.555811)
   8:       126.37   13.185503  ( -2.681568  -2.131849   1.204124)
   9:       158.39   11.807480  (  1.221095   2.305795   2.236004)
  10:       163.79   10.094736  (  2.124859  -2.162950   0.949399)
  11:       193.49    9.011680  (  2.063455   2.092728  -0.611821)
  12:       241.57    3.038242  ( -0.876564   0.783218  -1.287030)
  13:       258.28   10.505836  ( -0.507415   1.351764   2.901913)
  14:       364.97    6.326647  (  1.596376   0.901359  -1.722144)
  15:       395.53    1.538985  ( -0.874629   0.694035  -0.540670)
  16:       503.77  142.581841  ( -1.238942   4.428971  11.019577)
  17:       824.01   16.610272  ( -2.685167  -3.064841   0.083072)
  18:       846.30    6.366267  ( -1.735680   1.529638  -1.006922)
  19:       915.43    3.750298  ( -1.192920   1.413733  -0.573235)
  20:       947.11    5.141168  (  0.199578  -0.225609   2.247318)
  21:       950.51  108.825851  ( -2.292680   2.902839   9.754127)
  22:       973.62    0.628180  (  0.530643   0.538089  -0.238869)
  23:       980.93   23.903923  (  3.501128   3.281244  -0.937795)
  24:      1082.16   35.042516  (  2.701454   0.307623  -5.258329)
  25:      1190.92    0.236190  ( -0.360322   0.286631  -0.155564)
  26:      1206.72    4.658560  (  0.578741  -0.474732  -2.024413)
  27:      1306.33    8.025097  ( -1.017399   0.188096   2.637161)
  28:      1314.53    0.317888  (  0.353695  -0.351064  -0.263709)
  29:      1364.60   15.173900  (  2.841505  -2.375939   1.206095)
  30:      1370.87    8.441776  (  1.999828   1.560677  -1.416598)
  31:      1413.88    5.621602  ( -0.600834   0.472349   2.244435)
  32:      1437.42    0.438528  (  0.375039  -0.367708   0.403317)
  33:      1449.17   16.079820  ( -0.990752   0.847897   3.792005)
  34:      1455.40    0.413260  (  0.270162  -0.582984  -0.020040)
  35:      1473.23   17.699854  ( -2.903668  -3.010316   0.454493)
  36:      3047.96   58.362066  (  4.658359  -5.375985   2.785775)
  37:      3051.35   28.724462  (  4.463929   2.536622  -1.537318)
  38:      3084.33   13.811648  (  0.632886  -1.227921  -3.450118)
  39:      3141.52   34.416678  (  5.689426   0.479613  -1.347993)
  40:      3144.57   36.967396  ( -1.892081  -4.487831   3.639616)
  41:      3162.91    4.008604  ( -0.630146  -1.225499  -1.452471)
  42:      3166.27   16.264639  (  0.807609   2.490311   3.067696)
  43:      3250.55    6.514658  ( -1.325631  -0.456363   2.132860)
  44:      3386.13    6.128291  (  1.756088  -1.565039   0.771427)

--------------------------
THERMOCHEMISTRY AT 298.15K
--------------------------

Temperature         ... 298.15 K
Pressure            ... 1.00 atm
Total Mass          ... 172.47 AMU

Throughout the following assumptions are being made:
  (1) The electronic state is orbitally nondegenerate
  (2) There are no thermally accessible electronically excited states
  (3) Hindered rotations indicated by low frequency modes are not
      treated as such but are treated as vibrations and this may
      cause some error
  (4) All equations used are the standard statistical mechanics
      equations for an ideal gas
  (5) All vibrations are strictly harmonic

freq.      40.14  E(vib)   ...       0.54
freq.     126.37  E(vib)   ...       0.43
freq.     158.39  E(vib)   ...       0.39
freq.     163.79  E(vib)   ...       0.39
freq.     193.49  E(vib)   ...       0.36
freq.     241.57  E(vib)   ...       0.31
freq.     258.28  E(vib)   ...       0.30
freq.     364.97  E(vib)   ...       0.22
freq.     395.53  E(vib)   ...       0.20
freq.     503.77  E(vib)   ...       0.14
freq.     824.01  E(vib)   ...       0.05
freq.     846.30  E(vib)   ...       0.04
freq.     915.43  E(vib)   ...       0.03
freq.     947.11  E(vib)   ...       0.03
freq.     950.51  E(vib)   ...       0.03
freq.     973.62  E(vib)   ...       0.03
freq.     980.93  E(vib)   ...       0.02
freq.    1082.16  E(vib)   ...       0.02
freq.    1190.92  E(vib)   ...       0.01
freq.    1206.72  E(vib)   ...       0.01
freq.    1306.33  E(vib)   ...       0.01
freq.    1314.53  E(vib)   ...       0.01
freq.    1364.60  E(vib)   ...       0.01
freq.    1370.87  E(vib)   ...       0.01
freq.    1413.88  E(vib)   ...       0.00
freq.    1437.42  E(vib)   ...       0.00
freq.    1449.17  E(vib)   ...       0.00
freq.    1455.40  E(vib)   ...       0.00
freq.    1473.23  E(vib)   ...       0.00
freq.    3047.96  E(vib)   ...       0.00
freq.    3051.35  E(vib)   ...       0.00
freq.    3084.33  E(vib)   ...       0.00
freq.    3141.52  E(vib)   ...       0.00
freq.    3144.57  E(vib)   ...       0.00
freq.    3162.91  E(vib)   ...       0.00
freq.    3166.27  E(vib)   ...       0.00
freq.    3250.55  E(vib)   ...       0.00
freq.    3386.13  E(vib)   ...       0.00

------------
INNER ENERGY
------------

The inner energy is: U= E(el) + E(ZPE) + E(vib) + E(rot) + E(trans)
    E(el)   - is the total energy from the electronic structure calculation
              = E(kin-el) + E(nuc-el) + E(el-el) + E(nuc-nuc)
    E(ZPE)  - the the zero temperature vibrational energy from the frequency calculation
    E(vib)  - the the finite temperature correction to E(ZPE) due to population
              of excited vibrational states
    E(rot)  - is the rotational thermal energy
    E(trans)- is the translational thermal energy

Summary of contributions to the inner energy U:
Electronic energy                ...  -3191.14238579 Eh
Zero point energy                ...      0.12162004 Eh      76.32 kcal/mol
Thermal vibrational correction   ...      0.00570304 Eh       3.58 kcal/mol
Thermal rotational correction    ...      0.00141627 Eh       0.89 kcal/mol
Thermal translational correction ...      0.00141627 Eh       0.89 kcal/mol
-----------------------------------------------------------------------
Total thermal energy                  -3191.01223017 Eh

Summary of corrections to the electronic energy:
(perhaps to be used in another calculation)
Total thermal correction                  0.00853558 Eh       5.36 kcal/mol
Non-thermal (ZPE) correction              0.12162004 Eh      76.32 kcal/mol
-----------------------------------------------------------------------
Total correction                          0.13015562 Eh      81.67 kcal/mol

--------
ENTHALPY
--------

The enthalpy is H = U + kB*T
                kB is Boltzmann's constant
Total free energy                 ...  -3191.01223017 Eh
Thermal Enthalpy correction       ...      0.00094421 Eh       0.59 kcal/mol
-----------------------------------------------------------------------
Total Enthalpy                    ...  -3191.01128596 Eh

Note: Only C1 symmetry has been detected, increase convergence thresholds
      if your molecule has a higher symmetry. Symmetry factor of 1.0 is
      used for the rotational entropy correction.

Note: Rotational entropy computed according to Herzberg
Infrared and Raman Spectra, Chapter V,1, Van Nostrand Reinhold, 1945
Point Group:  C1, Symmetry Number:   1
Rotational constants in cm-1:     0.076014     0.022957     0.020013

Vibrational entropy computed according to the QRRHO of S. Grimme
Chem.Eur.J. 2012 18 9955

-------
ENTROPY
-------

The entropy contributions are T*S = T*(S(el)+S(vib)+S(rot)+S(trans))
     S(el)   - electronic entropy
     S(vib)  - vibrational entropy
     S(rot)  - rotational entropy
     S(trans)- translational entropy
The entropies will be listed as mutliplied by the temperature to get
units of energy

Electronic entropy                ...      0.00000000 Eh      0.00 kcal/mol
Vibrational entropy               ...      0.01015776 Eh      6.37 kcal/mol
Rotational entropy                ...      0.01435556 Eh      9.01 kcal/mol
Translational entropy             ...      0.01964318 Eh     12.33 kcal/mol
-----------------------------------------------------------------------
Final entropy term                ...      0.04415650 Eh     27.71 kcal/mol

In case the symmetry of your molecule has not been determined correctly
or in case you have a reason to use a different symmetry number we print
out the resulting rotational entropy values for sn=1,12 :
 --------------------------------------------------------
|  sn= 1 | S(rot)=       0.01435556 Eh      9.01 kcal/mol|
|  sn= 2 | S(rot)=       0.01370111 Eh      8.60 kcal/mol|
|  sn= 3 | S(rot)=       0.01331827 Eh      8.36 kcal/mol|
|  sn= 4 | S(rot)=       0.01304665 Eh      8.19 kcal/mol|
|  sn= 5 | S(rot)=       0.01283596 Eh      8.05 kcal/mol|
|  sn= 6 | S(rot)=       0.01266382 Eh      7.95 kcal/mol|
|  sn= 7 | S(rot)=       0.01251827 Eh      7.86 kcal/mol|
|  sn= 8 | S(rot)=       0.01239219 Eh      7.78 kcal/mol|
|  sn= 9 | S(rot)=       0.01228098 Eh      7.71 kcal/mol|
|  sn=10 | S(rot)=       0.01218151 Eh      7.64 kcal/mol|
|  sn=11 | S(rot)=       0.01209152 Eh      7.59 kcal/mol|
|  sn=12 | S(rot)=       0.01200936 Eh      7.54 kcal/mol|
 --------------------------------------------------------

-------------------
GIBBS FREE ENERGY
-------------------

The Gibbs free energy is G = H - T*S

Total enthalpy                    ...  -3191.01128596 Eh
Total entropy correction          ...     -0.04415650 Eh    -27.71 kcal/mol
-----------------------------------------------------------------------
Final Gibbs free energy         ...  -3191.05544245 Eh

                             ****ORCA TERMINATED NORMALLY****
TOTAL RUN TIME: 0 days 0 hours 2 minutes 56 seconds 959 msec
