                         Program Version 4.2.1 -  RELEASE  -
|  1> ! OptTS Freq PBE0 RIJCOSX D3BJ def2-SVP def2/J CPCM(Acetone)
|  2> %geom
|  3> modify_internal
|  4> { B 1 11 A } end
|  5> end
|  6> %geom
|  7> modify_internal
|  8> { B 1 3 A } end
|  9> end
| 10> %output
| 11> xyzfile=True
| 12> end
| 13> %scf
| 14> maxiter 250
| 15> end
| 16> %output
| 17> Print[P_Hirshfeld] = 1
| 18> end
| 19> % maxcore
| 20> 4000
| 21> %geom
| 22> Calc_Hess true
| 23> Recalc_Hess 30
| 24> Trust -0.1
| 25> MaxIter 150
| 26> end
| 27> %pal nprocs 4
| 28> end
| 29> *xyz -1 1
| 30> C     1.17254  -1.32051  -0.31230
| 31> C    -0.04721  -0.70626   0.29156
| 32> C    -1.40438  -1.11927  -0.17621
| 33> Br    0.08062   1.52831  -1.00237
| 34> H     2.08710  -0.83601   0.05168
| 35> H     1.13613  -1.24924  -1.40924
| 36> H     1.20343  -2.38405  -0.03444
| 37> H     0.05212  -0.00814   1.11249
| 38> H    -2.19279  -0.53734   0.31610
| 39> H    -1.54787  -2.18276   0.06381
| 40> H    -1.48686  -0.99370  -1.26560
| 41> Br   -0.06588  -2.14581   2.35898
| 42> *
| 43>
| 44>                          ****END OF INPUT****
 Total Charge           Charge          ....   -1
 Multiplicity           Mult            ....    1
 Number of Electrons    NEL             ....   96
Dispersion correction           -0.010384011
FINAL SINGLE POINT ENERGY     -5265.549850866480
Dispersion correction            ... done
Dispersion correction in the Hessian             ... done   (      0.6 sec)
Dispersion correction           -0.010358260
FINAL SINGLE POINT ENERGY     -5265.550432029967
Dispersion correction            ... done
Dispersion correction           -0.010333747
FINAL SINGLE POINT ENERGY     -5265.550923972965
FINAL SINGLE POINT ENERGY     -5265.551329291714
FINAL SINGLE POINT ENERGY     -5265.551655482130
FINAL SINGLE POINT ENERGY     -5265.551914646326
FINAL SINGLE POINT ENERGY     -5265.552115164999
FINAL SINGLE POINT ENERGY     -5265.552269259792
FINAL SINGLE POINT ENERGY     -5265.552388392621
FINAL SINGLE POINT ENERGY     -5265.552454551444
FINAL SINGLE POINT ENERGY     -5265.552522905789
FINAL SINGLE POINT ENERGY     -5265.552576598398
FINAL SINGLE POINT ENERGY     -5265.552619403409
FINAL SINGLE POINT ENERGY     -5265.552655447585
FINAL SINGLE POINT ENERGY     -5265.552675425519
Dispersion correction           -0.010207501
FINAL SINGLE POINT ENERGY     -5265.552689813260
Dispersion correction            ... done
Dispersion correction           -0.010207627
FINAL SINGLE POINT ENERGY     -5265.552687619083
Dispersion correction            ... done
                    ***********************HURRAY********************

CARTESIAN COORDINATES (ANGSTROEM)
---------------------------------
  C      1.167043   -1.335552   -0.314147
  C     -0.050359   -0.718417    0.287078
  C     -1.403637   -1.135771   -0.180036
  Br     0.078304    1.572878   -1.040454
  H      2.086109   -0.917768    0.114634
  H      1.168035   -1.167891   -1.401901
  H      1.152333   -2.422683   -0.143066
  H      0.049020    0.034090    1.058855
  H     -2.198818   -0.597258    0.348745
  H     -1.531118   -2.216780   -0.018707
  H     -1.495222   -0.944835   -1.259964
  Br    -0.034740   -2.104793    2.543424

 Multiplicity           Mult            ....    1
 Number of Electrons    NEL             ....   96
 Basis Dimension        Dim             ....  141

ORBITAL ENERGIES
----------------

  NO   OCC          E(Eh)            E(eV)
   0   2.0000    -483.099910    -13145.8169
   1   2.0000    -483.099648    -13145.8097
   2   2.0000     -62.535231     -1701.6702
   3   2.0000     -62.534970     -1701.6630
   4   2.0000     -56.323378     -1532.6370
   5   2.0000     -56.323107     -1532.6297
   6   2.0000     -56.322881     -1532.6235
   7   2.0000     -56.322751     -1532.6200
   8   2.0000     -56.322625     -1532.6165
   9   2.0000     -56.322496     -1532.6130
  10   2.0000     -10.310208      -280.5550
  11   2.0000     -10.226999      -278.2908
  12   2.0000     -10.226917      -278.2886
  13   2.0000      -8.678998      -236.1676
  14   2.0000      -8.678731      -236.1603
  15   2.0000      -6.487799      -176.5420
  16   2.0000      -6.487514      -176.5342
  17   2.0000      -6.484076      -176.4407
  18   2.0000      -6.483864      -176.4349
  19   2.0000      -6.483819      -176.4337
  20   2.0000      -6.483605      -176.4279
  21   2.0000      -2.574191       -70.0473
  22   2.0000      -2.573907       -70.0396
  23   2.0000      -2.573268       -70.0222
  24   2.0000      -2.573068       -70.0167
  25   2.0000      -2.572989       -70.0146
  26   2.0000      -2.572795       -70.0093
  27   2.0000      -2.570117       -69.9364
  28   2.0000      -2.570111       -69.9363
  29   2.0000      -2.569865       -69.9296
  30   2.0000      -2.569857       -69.9294
  31   2.0000      -0.814390       -22.1607
  32   2.0000      -0.706536       -19.2258
  33   2.0000      -0.688667       -18.7396
  34   2.0000      -0.683542       -18.6001
  35   2.0000      -0.582375       -15.8472
  36   2.0000      -0.474687       -12.9169
  37   2.0000      -0.444702       -12.1009
  38   2.0000      -0.425928       -11.5901
  39   2.0000      -0.396310       -10.7841
  40   2.0000      -0.372631       -10.1398
  41   2.0000      -0.366167        -9.9639
  42   2.0000      -0.267276        -7.2730
  43   2.0000      -0.242536        -6.5997
  44   2.0000      -0.240940        -6.5563
  45   2.0000      -0.238386        -6.4868
  46   2.0000      -0.238017        -6.4768
  47   2.0000      -0.225828        -6.1451
  48   0.0000      -0.053787        -1.4636
  49   0.0000       0.091511         2.4901
  50   0.0000       0.115842         3.1522
  51   0.0000       0.131636         3.5820
  52   0.0000       0.159995         4.3537

MULLIKEN ATOMIC CHARGES
-----------------------
   0 C :   -0.006223
   1 C :   -0.132280
   2 C :   -0.001462
   3 Br:   -0.694728
   4 H :    0.057949
   5 H :    0.072559
   6 H :    0.072990
   7 H :    0.122117
   8 H :    0.059333
   9 H :    0.071318
  10 H :    0.071369
  11 Br:   -0.692942
Sum of atomic charges:   -1.0000000

LOEWDIN ATOMIC CHARGES
----------------------
   0 C :   -0.083231
   1 C :    0.113840
   2 C :   -0.082202
   3 Br:   -0.617430
   4 H :    0.040897
   5 H :    0.045047
   6 H :    0.045052
   7 H :    0.021206
   8 H :    0.041272
   9 H :    0.045457
  10 H :    0.045508
  11 Br:   -0.615416

  Mayer bond orders larger than 0.100000
B(  0-C ,  1-C ) :   1.0690 B(  0-C ,  4-H ) :   0.9641 B(  0-C ,  5-H ) :   0.9425
B(  0-C ,  6-H ) :   0.9412 B(  1-C ,  2-C ) :   1.0738 B(  1-C ,  3-Br) :   0.3770
B(  1-C ,  7-H ) :   0.9411 B(  1-C , 11-Br) :   0.3798 B(  2-C ,  8-H ) :   0.9632
B(  2-C ,  9-H ) :   0.9408 B(  2-C , 10-H ) :   0.9404

Dispersion correction           -0.010207874
FINAL SINGLE POINT ENERGY     -5265.552684613212

DIPOLE MOMENT
-------------
                                X             Y             Z
Electronic contribution:      1.04173       7.21028       7.43774
Nuclear contribution   :     -1.17045      -8.05703      -8.29652
                        -----------------------------------------
Total Dipole Moment    :     -0.12871      -0.84675      -0.85877
                        -----------------------------------------
Magnitude (a.u.)       :      1.21287
Magnitude (Debye)      :      3.08286

Dispersion correction in the Hessian             ... done   (      0.6 sec)

VIBRATIONAL FREQUENCIES
-----------------------

Scaling factor for frequencies =  1.000000000  (already applied!)

   0:         0.00 cm**-1
   1:         0.00 cm**-1
   2:         0.00 cm**-1
   3:         0.00 cm**-1
   4:         0.00 cm**-1
   5:         0.00 cm**-1
   6:      -344.56 cm**-1 ***imaginary mode***
   7:        87.64 cm**-1
   8:       111.71 cm**-1
   9:       114.30 cm**-1
  10:       140.61 cm**-1
  11:       200.87 cm**-1
  12:       264.05 cm**-1
  13:       313.88 cm**-1
  14:       389.98 cm**-1
  15:       857.17 cm**-1
  16:       909.16 cm**-1
  17:       922.90 cm**-1
  18:       930.70 cm**-1
  19:      1022.11 cm**-1
  20:      1136.49 cm**-1
  21:      1143.94 cm**-1
  22:      1313.84 cm**-1
  23:      1350.49 cm**-1
  24:      1412.59 cm**-1
  25:      1413.68 cm**-1
  26:      1424.35 cm**-1
  27:      1431.33 cm**-1
  28:      1443.37 cm**-1
  29:      3065.09 cm**-1
  30:      3067.91 cm**-1
  31:      3152.84 cm**-1
  32:      3155.90 cm**-1
  33:      3192.52 cm**-1
  34:      3196.86 cm**-1
  35:      3344.92 cm**-1

IR SPECTRUM
-----------

 Mode    freq (cm**-1)   T**2         TX         TY         TZ
-------------------------------------------------------------------
   7:        87.64    3.250498  ( -0.179495  -1.209036  -1.325334)
   8:       111.71    0.268209  ( -0.027307   0.405521   0.320961)
   9:       114.30   18.600936  (  0.515683   2.981669   3.073216)
  10:       140.61   10.505703  (  3.210677  -0.421651  -0.139516)
  11:       200.87   31.482598  (  0.173591   4.000794  -3.930154)
  12:       264.05    0.099337  ( -0.026224  -0.226371   0.217727)
  13:       313.88   83.525467  ( -0.214571  -6.558176   6.361585)
  14:       389.98    1.007336  (  0.102690   0.612256   0.788628)
  15:       857.17   27.168501  ( -0.170860  -3.753132   3.612936)
  16:       909.16   10.343127  ( -0.368295  -2.307202  -2.210047)
  17:       922.90    0.002563  ( -0.012131   0.040949   0.027181)
  18:       930.70    0.031395  ( -0.020098  -0.158334  -0.076952)
  19:      1022.11  313.430234  (  0.341127  12.707541 -12.322024)
  20:      1136.49   14.752726  (  3.830124  -0.142273  -0.250274)
  21:      1143.94   61.111885  (  0.707132   5.396254   5.611799)
  22:      1313.84    7.067305  (  2.649571  -0.211905  -0.046648)
  23:      1350.49   54.344326  (  0.714778   5.132072   5.243591)
  24:      1412.59   14.670864  ( -3.804861   0.391297   0.201949)
  25:      1413.68    3.761003  (  1.928156  -0.170237  -0.119316)
  26:      1424.35   40.430521  ( -6.335775   0.504601   0.183986)
  27:      1431.33    6.027242  (  0.251973   1.683938  -1.768644)
  28:      1443.37   14.493631  ( -0.296954  -2.669172  -2.698327)
  29:      3065.09    3.108693  ( -1.522214   0.682187   0.571120)
  30:      3067.91    3.178044  (  0.838249   1.085380   1.139005)
  31:      3152.84    2.078196  ( -0.014323  -1.014057   1.024539)
  32:      3155.90   24.212457  ( -0.117574  -3.517832   3.438530)
  33:      3192.52    6.558193  ( -2.400075  -0.637362  -0.625783)
  34:      3196.86    7.404559  ( -2.429527   0.894094   0.838185)
  35:      3344.92    0.146793  ( -0.033251  -0.234176  -0.301411)

--------------------------
THERMOCHEMISTRY AT 298.15K
--------------------------

Temperature         ... 298.15 K
Pressure            ... 1.00 atm
Total Mass          ... 202.89 AMU

Throughout the following assumptions are being made:
  (1) The electronic state is orbitally nondegenerate
  (2) There are no thermally accessible electronically excited states
  (3) Hindered rotations indicated by low frequency modes are not
      treated as such but are treated as vibrations and this may
      cause some error
  (4) All equations used are the standard statistical mechanics
      equations for an ideal gas
  (5) All vibrations are strictly harmonic

freq.      87.64  E(vib)   ...       0.48
freq.     111.71  E(vib)   ...       0.45
freq.     114.30  E(vib)   ...       0.44
freq.     140.61  E(vib)   ...       0.41
freq.     200.87  E(vib)   ...       0.35
freq.     264.05  E(vib)   ...       0.29
freq.     313.88  E(vib)   ...       0.25
freq.     389.98  E(vib)   ...       0.20
freq.     857.17  E(vib)   ...       0.04
freq.     909.16  E(vib)   ...       0.03
freq.     922.90  E(vib)   ...       0.03
freq.     930.70  E(vib)   ...       0.03
freq.    1022.11  E(vib)   ...       0.02
freq.    1136.49  E(vib)   ...       0.01
freq.    1143.94  E(vib)   ...       0.01
freq.    1313.84  E(vib)   ...       0.01
freq.    1350.49  E(vib)   ...       0.01
freq.    1412.59  E(vib)   ...       0.00
freq.    1413.68  E(vib)   ...       0.00
freq.    1424.35  E(vib)   ...       0.00
freq.    1431.33  E(vib)   ...       0.00
freq.    1443.37  E(vib)   ...       0.00
freq.    3065.09  E(vib)   ...       0.00
freq.    3067.91  E(vib)   ...       0.00
freq.    3152.84  E(vib)   ...       0.00
freq.    3155.90  E(vib)   ...       0.00
freq.    3192.52  E(vib)   ...       0.00
freq.    3196.86  E(vib)   ...       0.00
freq.    3344.92  E(vib)   ...       0.00

------------
INNER ENERGY
------------

The inner energy is: U= E(el) + E(ZPE) + E(vib) + E(rot) + E(trans)
    E(el)   - is the total energy from the electronic structure calculation
              = E(kin-el) + E(nuc-el) + E(el-el) + E(nuc-nuc)
    E(ZPE)  - the the zero temperature vibrational energy from the frequency calculation
    E(vib)  - the the finite temperature correction to E(ZPE) due to population
              of excited vibrational states
    E(rot)  - is the rotational thermal energy
    E(trans)- is the translational thermal energy

Summary of contributions to the inner energy U:
Electronic energy                ...  -5265.55268461 Eh
Zero point energy                ...      0.09229132 Eh      57.91 kcal/mol
Thermal vibrational correction   ...      0.00493016 Eh       3.09 kcal/mol
Thermal rotational correction    ...      0.00141627 Eh       0.89 kcal/mol
Thermal translational correction ...      0.00141627 Eh       0.89 kcal/mol
-----------------------------------------------------------------------
Total thermal energy                  -5265.45263059 Eh

Summary of corrections to the electronic energy:
(perhaps to be used in another calculation)
Total thermal correction                  0.00776270 Eh       4.87 kcal/mol
Non-thermal (ZPE) correction              0.09229132 Eh      57.91 kcal/mol
-----------------------------------------------------------------------
Total correction                          0.10005402 Eh      62.78 kcal/mol

--------
ENTHALPY
--------

The enthalpy is H = U + kB*T
                kB is Boltzmann's constant
Total free energy                 ...  -5265.45263059 Eh
Thermal Enthalpy correction       ...      0.00094421 Eh       0.59 kcal/mol
-----------------------------------------------------------------------
Total Enthalpy                    ...  -5265.45168638 Eh

Note: Only C1 symmetry has been detected, increase convergence thresholds
      if your molecule has a higher symmetry. Symmetry factor of 1.0 is
      used for the rotational entropy correction.

Note: Rotational entropy computed according to Herzberg
Infrared and Raman Spectra, Chapter V,1, Van Nostrand Reinhold, 1945
Point Group:  C1, Symmetry Number:   1
Rotational constants in cm-1:     0.147622     0.015138     0.015120

Vibrational entropy computed according to the QRRHO of S. Grimme
Chem.Eur.J. 2012 18 9955

-------
ENTROPY
-------

The entropy contributions are T*S = T*(S(el)+S(vib)+S(rot)+S(trans))
     S(el)   - electronic entropy
     S(vib)  - vibrational entropy
     S(rot)  - rotational entropy
     S(trans)- translational entropy
The entropies will be listed as mutliplied by the temperature to get
units of energy

Electronic entropy                ...      0.00000000 Eh      0.00 kcal/mol
Vibrational entropy               ...      0.00905017 Eh      5.68 kcal/mol
Rotational entropy                ...      0.01437116 Eh      9.02 kcal/mol
Translational entropy             ...      0.01987324 Eh     12.47 kcal/mol
-----------------------------------------------------------------------
Final entropy term                ...      0.04329456 Eh     27.17 kcal/mol

In case the symmetry of your molecule has not been determined correctly
or in case you have a reason to use a different symmetry number we print
out the resulting rotational entropy values for sn=1,12 :
 --------------------------------------------------------
|  sn= 1 | S(rot)=       0.01437116 Eh      9.02 kcal/mol|
|  sn= 2 | S(rot)=       0.01371670 Eh      8.61 kcal/mol|
|  sn= 3 | S(rot)=       0.01333387 Eh      8.37 kcal/mol|
|  sn= 4 | S(rot)=       0.01306225 Eh      8.20 kcal/mol|
|  sn= 5 | S(rot)=       0.01285156 Eh      8.06 kcal/mol|
|  sn= 6 | S(rot)=       0.01267941 Eh      7.96 kcal/mol|
|  sn= 7 | S(rot)=       0.01253387 Eh      7.87 kcal/mol|
|  sn= 8 | S(rot)=       0.01240779 Eh      7.79 kcal/mol|
|  sn= 9 | S(rot)=       0.01229658 Eh      7.72 kcal/mol|
|  sn=10 | S(rot)=       0.01219710 Eh      7.65 kcal/mol|
|  sn=11 | S(rot)=       0.01210711 Eh      7.60 kcal/mol|
|  sn=12 | S(rot)=       0.01202496 Eh      7.55 kcal/mol|
 --------------------------------------------------------

-------------------
GIBBS FREE ENERGY
-------------------

The Gibbs free energy is G = H - T*S

Total enthalpy                    ...  -5265.45168638 Eh
Total entropy correction          ...     -0.04329456 Eh    -27.17 kcal/mol
-----------------------------------------------------------------------
Final Gibbs free energy         ...  -5265.49498094 Eh

For completeness - the Gibbs free energy minus the electronic energy
G-E(el)                           ...      0.05770367 Eh     36.21 kcal/mol

                             ****ORCA TERMINATED NORMALLY****
TOTAL RUN TIME: 0 days 0 hours 6 minutes 6 seconds 364 msec
