                         Program Version 4.2.1 -  RELEASE  -
|  1> ! OptTS Freq PBE0 RIJCOSX D3BJ def2-SVP def2/J CPCM(Acetone)
|  2> %geom
|  3> modify_internal
|  4> { B 1 8 A } end
|  5> end
|  6> %geom
|  7> modify_internal
|  8> { B 1 2 A } end
|  9> end
| 10> %geom
| 11> Constraints
| 12> {C 8 C}
| 13> {C 2 C}
| 14> end
| 15> end
| 16> %output
| 17> xyzfile=True
| 18> end
| 19> %scf
| 20> maxiter 250
| 21> end
| 22> %output
| 23> Print[P_Hirshfeld] = 1
| 24> end
| 25> % maxcore
| 26> 4000
| 27> %geom
| 28> Calc_Hess true
| 29> Recalc_Hess 30
| 30> Trust -0.1
| 31> MaxIter 150
| 32> end
| 33> %pal nprocs 4
| 34> end
| 35> *xyz -1 1
| 36> C    5.00772819   0.05801716   0.09109776
| 37> C    6.13650576  -0.90426473   0.08928466
| 38> I    8.57887323   1.37093171  -0.40733212
| 39> H    4.06226325  -0.48394652   0.24581490
| 40> H    5.11321620   0.78630404   0.90660354
| 41> H    4.93637965   0.58316443  -0.87165318
| 42> H    6.59221753  -1.21573836  -0.85147473
| 43> H    6.76788637  -1.01567305   0.97120024
| 44> Cl   5.13643358  -3.04963062   0.41863774
| 45> *
| 46>
| 47>                          ****END OF INPUT****
 Total Charge           Charge          ....   -1
 Multiplicity           Mult            ....    1
 Number of Electrons    NEL             ....   60
Dispersion correction           -0.006316959
FINAL SINGLE POINT ENERGY      -836.832439233907
Dispersion correction            ... done
Dispersion correction in the Hessian             ... done   (      0.5 sec)
Dispersion correction           -0.006351272
FINAL SINGLE POINT ENERGY      -836.831420209880
Dispersion correction            ... done
Dispersion correction           -0.006383649
FINAL SINGLE POINT ENERGY      -836.830445638517
FINAL SINGLE POINT ENERGY      -836.829509274896
FINAL SINGLE POINT ENERGY      -836.828612244337
FINAL SINGLE POINT ENERGY      -836.827755738790
FINAL SINGLE POINT ENERGY      -836.826936873148
FINAL SINGLE POINT ENERGY      -836.826168320650
FINAL SINGLE POINT ENERGY      -836.825413834763
FINAL SINGLE POINT ENERGY      -836.824717214310
FINAL SINGLE POINT ENERGY      -836.820957135020
FINAL SINGLE POINT ENERGY      -836.820973750752
FINAL SINGLE POINT ENERGY      -836.821001990382
FINAL SINGLE POINT ENERGY      -836.821022958906
FINAL SINGLE POINT ENERGY      -836.821025253427
FINAL SINGLE POINT ENERGY      -836.821027609844
FINAL SINGLE POINT ENERGY      -836.821022025308
Dispersion correction           -0.006653135
FINAL SINGLE POINT ENERGY      -836.821016514437
Dispersion correction            ... done
Dispersion correction           -0.006653504
FINAL SINGLE POINT ENERGY      -836.821011526743
Dispersion correction            ... done
                    ***********************HURRAY********************

CARTESIAN COORDINATES (ANGSTROEM)
---------------------------------
  C      5.341346    0.186444    0.048255
  C      6.525513   -0.696040    0.052997
  I      8.578873    1.370932   -0.407332
  H      4.479854   -0.455812    0.298007
  H      5.412171    0.970470    0.813381
  H      5.163843    0.636553   -0.937209
  H      6.868432   -1.201116   -0.849767
  H      7.022652   -0.963618    0.985802
  Cl     5.136434   -3.049631    0.418638

 Multiplicity           Mult            ....    1
 Number of Electrons    NEL             ....   60
 Basis Dimension        Dim             ....   97

ORBITAL ENERGIES
----------------

  NO   OCC          E(Eh)            E(eV)
   0   2.0000    -101.558673     -2763.5520
   1   2.0000     -10.315413      -280.6966
   2   2.0000     -10.232178      -278.4317
   3   2.0000      -9.405858      -255.9464
   4   2.0000      -7.143463      -194.3835
   5   2.0000      -7.140484      -194.3025
   6   2.0000      -7.140350      -194.2988
   7   2.0000      -6.835209      -185.9955
   8   2.0000      -4.846678      -131.8848
   9   2.0000      -4.840709      -131.7224
  10   2.0000      -4.840675      -131.7215
  11   2.0000      -1.873089       -50.9693
  12   2.0000      -1.871597       -50.9287
  13   2.0000      -1.871582       -50.9283
  14   2.0000      -1.866669       -50.7947
  15   2.0000      -1.866661       -50.7944
  16   2.0000      -0.789547       -21.4847
  17   2.0000      -0.701558       -19.0904
  18   2.0000      -0.640892       -17.4396
  19   2.0000      -0.620267       -16.8783
  20   2.0000      -0.481546       -13.1035
  21   2.0000      -0.428967       -11.6728
  22   2.0000      -0.422644       -11.5007
  23   2.0000      -0.376407       -10.2426
  24   2.0000      -0.265436        -7.2229
  25   2.0000      -0.239184        -6.5085
  26   2.0000      -0.238862        -6.4998
  27   2.0000      -0.236132        -6.4255
  28   2.0000      -0.234957        -6.3935
  29   2.0000      -0.230607        -6.2751
  30   0.0000      -0.078407        -2.1336
  31   0.0000       0.095910         2.6098
  32   0.0000       0.125431         3.4131
  33   0.0000       0.126315         3.4372
  34   0.0000       0.172568         4.6958

MULLIKEN ATOMIC CHARGES
-----------------------
   0 C :   -0.073418
   1 C :   -0.048206
   2 I :   -0.672184
   3 H :    0.078319
   4 H :    0.083579
   5 H :    0.076824
   6 H :    0.129979
   7 H :    0.129205
   8 Cl:   -0.704097
Sum of atomic charges:   -1.0000000

LOEWDIN ATOMIC CHARGES
----------------------
   0 C :   -0.091522
   1 C :    0.130573
   2 I :   -0.612664
   3 H :    0.053187
   4 H :    0.049359
   5 H :    0.047283
   6 H :    0.044071
   7 H :    0.045462
   8 Cl:   -0.665749

  Mayer bond orders larger than 0.100000
B(  0-C ,  1-C ) :   1.1148 B(  0-C ,  3-H ) :   0.9082 B(  0-C ,  4-H ) :   0.9568
B(  0-C ,  5-H ) :   0.9627 B(  1-C ,  2-I ) :   0.4522 B(  1-C ,  6-H ) :   0.9522
B(  1-C ,  7-H ) :   0.9527 B(  1-C ,  8-Cl) :   0.3310

Dispersion correction           -0.006653513
FINAL SINGLE POINT ENERGY      -836.821010537670

DIPOLE MOMENT
-------------
                                X             Y             Z
Electronic contribution:     81.58930      77.65183     -16.84958
Nuclear contribution   :    -80.64428     -75.09364      16.51218
                        -----------------------------------------
Total Dipole Moment    :      0.94502       2.55819      -0.33741
                        -----------------------------------------
Magnitude (a.u.)       :      2.74795
Magnitude (Debye)      :      6.98473

Dispersion correction in the Hessian             ... done   (      0.4 sec)

VIBRATIONAL FREQUENCIES
-----------------------

Scaling factor for frequencies =  1.000000000  (already applied!)

   0:         0.00 cm**-1
   1:         0.00 cm**-1
   2:         0.00 cm**-1
   3:         0.00 cm**-1
   4:         0.00 cm**-1
   5:         0.00 cm**-1
   6:      -312.14 cm**-1 ***imaginary mode***
   7:        70.40 cm**-1
   8:       119.89 cm**-1
   9:       134.58 cm**-1
  10:       170.90 cm**-1
  11:       242.53 cm**-1
  12:       621.58 cm**-1
  13:       795.92 cm**-1
  14:       804.16 cm**-1
  15:       961.17 cm**-1
  16:      1091.76 cm**-1
  17:      1175.95 cm**-1
  18:      1321.51 cm**-1
  19:      1413.15 cm**-1
  20:      1420.69 cm**-1
  21:      1454.40 cm**-1
  22:      3056.45 cm**-1
  23:      3152.42 cm**-1
  24:      3194.94 cm**-1
  25:      3223.09 cm**-1
  26:      3352.13 cm**-1

IR SPECTRUM
-----------

 Mode    freq (cm**-1)   T**2         TX         TY         TZ
-------------------------------------------------------------------
   7:        70.40    1.806935  (  0.769380   1.076420  -0.237299)
   8:       119.89   11.317020  (  1.207769   1.329939   2.844218)
   9:       134.58   21.871786  (  3.199283  -3.411207   0.006561)
  10:       170.90    5.226835  ( -0.701316  -0.563402   2.101802)
  11:       242.53   15.227075  ( -3.733853  -0.935403   0.640656)
  12:       621.58    0.133187  ( -0.165499  -0.188618   0.264992)
  13:       795.92   10.808837  (  0.535125   2.283166   2.304263)
  14:       804.16   36.151948  ( -2.551682  -5.057877   2.014635)
  15:       961.17  536.181600  ( 17.031349  15.289890  -3.511980)
  16:      1091.76   40.983503  (  0.976773  -6.321665   0.256843)
  17:      1175.95    4.029861  (  0.231850   0.007205  -1.994005)
  18:      1321.51   57.536695  (  6.600180  -3.639761  -0.852322)
  19:      1413.15   16.015098  ( -0.218885  -0.712135  -3.931927)
  20:      1420.69    8.622842  ( -2.775940  -0.615530   0.733567)
  21:      1454.40    2.516275  ( -0.527745   1.427711  -0.446545)
  22:      3056.45    0.368778  (  0.436130   0.387762   0.167954)
  23:      3152.42    6.208812  (  0.556646  -2.400039   0.372520)
  24:      3194.94    2.765104  (  0.761745   0.131329   1.472278)
  25:      3223.09    9.382478  ( -2.767884  -1.227433   0.463364)
  26:      3352.13   11.302724  (  0.447603   0.506936   3.293234)

--------------------------
THERMOCHEMISTRY AT 298.15K
--------------------------

Temperature         ... 298.15 K
Pressure            ... 1.00 atm
Total Mass          ... 191.42 AMU

Throughout the following assumptions are being made:
  (1) The electronic state is orbitally nondegenerate
  (2) There are no thermally accessible electronically excited states
  (3) Hindered rotations indicated by low frequency modes are not
      treated as such but are treated as vibrations and this may
      cause some error
  (4) All equations used are the standard statistical mechanics
      equations for an ideal gas
  (5) All vibrations are strictly harmonic

freq.      70.40  E(vib)   ...       0.50
freq.     119.89  E(vib)   ...       0.44
freq.     134.58  E(vib)   ...       0.42
freq.     170.90  E(vib)   ...       0.38
freq.     242.53  E(vib)   ...       0.31
freq.     621.58  E(vib)   ...       0.09
freq.     795.92  E(vib)   ...       0.05
freq.     804.16  E(vib)   ...       0.05
freq.     961.17  E(vib)   ...       0.03
freq.    1091.76  E(vib)   ...       0.02
freq.    1175.95  E(vib)   ...       0.01
freq.    1321.51  E(vib)   ...       0.01
freq.    1413.15  E(vib)   ...       0.00
freq.    1420.69  E(vib)   ...       0.00
freq.    1454.40  E(vib)   ...       0.00
freq.    3056.45  E(vib)   ...       0.00
freq.    3152.42  E(vib)   ...       0.00
freq.    3194.94  E(vib)   ...       0.00
freq.    3223.09  E(vib)   ...       0.00
freq.    3352.13  E(vib)   ...       0.00

------------
INNER ENERGY
------------

The inner energy is: U= E(el) + E(ZPE) + E(vib) + E(rot) + E(trans)
    E(el)   - is the total energy from the electronic structure calculation
              = E(kin-el) + E(nuc-el) + E(el-el) + E(nuc-nuc)
    E(ZPE)  - the the zero temperature vibrational energy from the frequency calculation
    E(vib)  - the the finite temperature correction to E(ZPE) due to population
              of excited vibrational states
    E(rot)  - is the rotational thermal energy
    E(trans)- is the translational thermal energy

Summary of contributions to the inner energy U:
Electronic energy                ...   -836.82101054 Eh
Zero point energy                ...      0.06328207 Eh      39.71 kcal/mol
Thermal vibrational correction   ...      0.00368797 Eh       2.31 kcal/mol
Thermal rotational correction    ...      0.00141627 Eh       0.89 kcal/mol
Thermal translational correction ...      0.00141627 Eh       0.89 kcal/mol
-----------------------------------------------------------------------
Total thermal energy                   -836.75120796 Eh

Summary of corrections to the electronic energy:
(perhaps to be used in another calculation)
Total thermal correction                  0.00652051 Eh       4.09 kcal/mol
Non-thermal (ZPE) correction              0.06328207 Eh      39.71 kcal/mol
-----------------------------------------------------------------------
Total correction                          0.06980257 Eh      43.80 kcal/mol

--------
ENTHALPY
--------

The enthalpy is H = U + kB*T
                kB is Boltzmann's constant
Total free energy                 ...   -836.75120796 Eh
Thermal Enthalpy correction       ...      0.00094421 Eh       0.59 kcal/mol
-----------------------------------------------------------------------
Total Enthalpy                    ...   -836.75026375 Eh

Note: Only C1 symmetry has been detected, increase convergence thresholds
      if your molecule has a higher symmetry. Symmetry factor of 1.0 is
      used for the rotational entropy correction.

Note: Rotational entropy computed according to Herzberg
Infrared and Raman Spectra, Chapter V,1, Van Nostrand Reinhold, 1945
Point Group:  C1, Symmetry Number:   1
Rotational constants in cm-1:     0.325465     0.017401     0.016628

Vibrational entropy computed according to the QRRHO of S. Grimme
Chem.Eur.J. 2012 18 9955

-------
ENTROPY
-------

The entropy contributions are T*S = T*(S(el)+S(vib)+S(rot)+S(trans))
     S(el)   - electronic entropy
     S(vib)  - vibrational entropy
     S(rot)  - rotational entropy
     S(trans)- translational entropy
The entropies will be listed as mutliplied by the temperature to get
units of energy

Electronic entropy                ...      0.00000000 Eh      0.00 kcal/mol
Vibrational entropy               ...      0.00688131 Eh      4.32 kcal/mol
Rotational entropy                ...      0.01388727 Eh      8.71 kcal/mol
Translational entropy             ...      0.01979079 Eh     12.42 kcal/mol
-----------------------------------------------------------------------
Final entropy term                ...      0.04055937 Eh     25.45 kcal/mol

In case the symmetry of your molecule has not been determined correctly
or in case you have a reason to use a different symmetry number we print
out the resulting rotational entropy values for sn=1,12 :
 --------------------------------------------------------
|  sn= 1 | S(rot)=       0.01388727 Eh      8.71 kcal/mol|
|  sn= 2 | S(rot)=       0.01323282 Eh      8.30 kcal/mol|
|  sn= 3 | S(rot)=       0.01284998 Eh      8.06 kcal/mol|
|  sn= 4 | S(rot)=       0.01257836 Eh      7.89 kcal/mol|
|  sn= 5 | S(rot)=       0.01236767 Eh      7.76 kcal/mol|
|  sn= 6 | S(rot)=       0.01219553 Eh      7.65 kcal/mol|
|  sn= 7 | S(rot)=       0.01204998 Eh      7.56 kcal/mol|
|  sn= 8 | S(rot)=       0.01192390 Eh      7.48 kcal/mol|
|  sn= 9 | S(rot)=       0.01181269 Eh      7.41 kcal/mol|
|  sn=10 | S(rot)=       0.01171321 Eh      7.35 kcal/mol|
|  sn=11 | S(rot)=       0.01162322 Eh      7.29 kcal/mol|
|  sn=12 | S(rot)=       0.01154107 Eh      7.24 kcal/mol|
 --------------------------------------------------------

-------------------
GIBBS FREE ENERGY
-------------------

The Gibbs free energy is G = H - T*S

Total enthalpy                    ...   -836.75026375 Eh
Total entropy correction          ...     -0.04055937 Eh    -25.45 kcal/mol
-----------------------------------------------------------------------
Final Gibbs free energy         ...   -836.79082312 Eh

For completeness - the Gibbs free energy minus the electronic energy
G-E(el)                           ...      0.03018742 Eh     18.94 kcal/mol

                             ****ORCA TERMINATED NORMALLY****
TOTAL RUN TIME: 0 days 0 hours 5 minutes 55 seconds 786 msec
