                         Program Version 4.2.1 -  RELEASE  -
|  1> ! OptTS Freq PBE0 RIJCOSX D3BJ def2-SVP def2/J CPCM(Acetone)
|  2> %geom
|  3> modify_internal
|  4> { B 2 11 A } end
|  5> end
|  6> %geom
|  7> modify_internal
|  8> { B 2 3 A } end
|  9> end
| 10> %output
| 11> xyzfile=True
| 12> end
| 13> %scf
| 14> maxiter 250
| 15> end
| 16> %output
| 17> Print[P_Hirshfeld] = 1
| 18> end
| 19> % maxcore
| 20> 4000
| 21> %geom
| 22> Calc_Hess true
| 23> Recalc_Hess 30
| 24> Trust -0.1
| 25> MaxIter 150
| 26> end
| 27> %pal nprocs 4
| 28> end
| 29> *xyz -1 1
| 30> C    -2.27100   0.17655  -0.99384
| 31> C    -1.14010  -0.81549  -0.82102
| 32> C    -0.28505  -0.52064   0.37475
| 33> Br    1.41585   0.96472  -0.62508
| 34> H    -2.90643  -0.08084  -1.85456
| 35> H    -2.90047   0.18061  -0.09006
| 36> H    -1.87028   1.19126  -1.14951
| 37> H    -1.53857  -1.83265  -0.68522
| 38> H    -0.49623  -0.84653  -1.71367
| 39> H     0.50886  -1.20099   0.66793
| 40> H    -0.50681   0.30600   1.04068
| 41> Br   -1.66281  -1.71654   2.00427
| 42> *
| 43>
| 44>                          ****END OF INPUT****
 Total Charge           Charge          ....   -1
 Multiplicity           Mult            ....    1
 Number of Electrons    NEL             ....   96
Dispersion correction           -0.010073442
FINAL SINGLE POINT ENERGY     -5265.550798259304
Dispersion correction            ... done
Dispersion correction in the Hessian             ... done   (      0.6 sec)
Dispersion correction           -0.010040091
FINAL SINGLE POINT ENERGY     -5265.551411480750
Dispersion correction            ... done
Dispersion correction           -0.010005685
FINAL SINGLE POINT ENERGY     -5265.551914647083
FINAL SINGLE POINT ENERGY     -5265.552301089591
FINAL SINGLE POINT ENERGY     -5265.552597686942
FINAL SINGLE POINT ENERGY     -5265.552792959505
FINAL SINGLE POINT ENERGY     -5265.552926984285
FINAL SINGLE POINT ENERGY     -5265.552991628466
Dispersion correction           -0.009815307
FINAL SINGLE POINT ENERGY     -5265.553006729133
Dispersion correction            ... done
Dispersion correction           -0.009813338
FINAL SINGLE POINT ENERGY     -5265.553004200423
Dispersion correction            ... done
                    ***********************HURRAY********************

CARTESIAN COORDINATES (ANGSTROEM)
---------------------------------
  C     -2.267743    0.189725   -1.013283
  C     -1.157969   -0.821750   -0.815001
  C     -0.311585   -0.543056    0.388508
  Br     1.417331    1.012134   -0.647292
  H     -2.884729   -0.059933   -1.889434
  H     -2.925964    0.217509   -0.130244
  H     -1.842507    1.194822   -1.163738
  H     -1.570430   -1.837543   -0.710240
  H     -0.493213   -0.854354   -1.692692
  H      0.523093   -1.190028    0.642324
  H     -0.503664    0.308171    1.033591
  Br    -1.635661   -1.810238    2.152170

 Multiplicity           Mult            ....    1
 Number of Electrons    NEL             ....   96
 Basis Dimension        Dim             ....  141

ORBITAL ENERGIES
----------------

  NO   OCC          E(Eh)            E(eV)
   0   2.0000    -483.105715    -13145.9748
   1   2.0000    -483.105475    -13145.9683
   2   2.0000     -62.541142     -1701.8310
   3   2.0000     -62.540894     -1701.8242
   4   2.0000     -56.329563     -1532.8053
   5   2.0000     -56.329308     -1532.7984
   6   2.0000     -56.328629     -1532.7799
   7   2.0000     -56.328530     -1532.7772
   8   2.0000     -56.328388     -1532.7734
   9   2.0000     -56.328284     -1532.7705
  10   2.0000     -10.294094      -280.1165
  11   2.0000     -10.229653      -278.3630
  12   2.0000     -10.214958      -277.9631
  13   2.0000      -8.684982      -236.3304
  14   2.0000      -8.684725      -236.3234
  15   2.0000      -6.494366      -176.7207
  16   2.0000      -6.494088      -176.7131
  17   2.0000      -6.489656      -176.5925
  18   2.0000      -6.489634      -176.5919
  19   2.0000      -6.489412      -176.5859
  20   2.0000      -6.489386      -176.5852
  21   2.0000      -2.580645       -70.2229
  22   2.0000      -2.580359       -70.2151
  23   2.0000      -2.579429       -70.1898
  24   2.0000      -2.579368       -70.1882
  25   2.0000      -2.579164       -70.1826
  26   2.0000      -2.579104       -70.1810
  27   2.0000      -2.575606       -70.0858
  28   2.0000      -2.575592       -70.0854
  29   2.0000      -2.575365       -70.0792
  30   2.0000      -2.575351       -70.0789
  31   2.0000      -0.805854       -21.9284
  32   2.0000      -0.709325       -19.3017
  33   2.0000      -0.694656       -18.9026
  34   2.0000      -0.665730       -18.1154
  35   2.0000      -0.589572       -16.0431
  36   2.0000      -0.469403       -12.7731
  37   2.0000      -0.455301       -12.3894
  38   2.0000      -0.428627       -11.6635
  39   2.0000      -0.365569        -9.9476
  40   2.0000      -0.358595        -9.7579
  41   2.0000      -0.355379        -9.6704
  42   2.0000      -0.286451        -7.7947
  43   2.0000      -0.246212        -6.6998
  44   2.0000      -0.245254        -6.6737
  45   2.0000      -0.241556        -6.5731
  46   2.0000      -0.241015        -6.5583
  47   2.0000      -0.227186        -6.1821
  48   0.0000      -0.035397        -0.9632
  49   0.0000       0.090764         2.4698
  50   0.0000       0.122977         3.3464
  51   0.0000       0.129915         3.5352
  52   0.0000       0.147169         4.0047

MULLIKEN ATOMIC CHARGES
-----------------------
   0 C :   -0.092280
   1 C :   -0.063050
   2 C :   -0.022629
   3 Br:   -0.659513
   4 H :    0.050588
   5 H :    0.042431
   6 H :    0.039163
   7 H :    0.061742
   8 H :    0.064882
   9 H :    0.115826
  10 H :    0.119797
  11 Br:   -0.656957
Sum of atomic charges:   -1.0000000

LOEWDIN ATOMIC CHARGES
----------------------
   0 C :   -0.073824
   1 C :   -0.076044
   2 C :    0.064310
   3 Br:   -0.568831
   4 H :    0.032859
   5 H :    0.025948
   6 H :    0.025132
   7 H :    0.037862
   8 H :    0.038486
   9 H :    0.033163
  10 H :    0.027554
  11 Br:   -0.566613

  Mayer bond orders larger than 0.100000
B(  0-C ,  1-C ) :   1.0786 B(  0-C ,  4-H ) :   0.9694 B(  0-C ,  5-H ) :   0.9699
B(  0-C ,  6-H ) :   0.9692 B(  1-C ,  2-C ) :   1.0593 B(  1-C ,  7-H ) :   0.9278
B(  1-C ,  8-H ) :   0.9290 B(  2-C ,  3-Br) :   0.4170 B(  2-C ,  9-H ) :   0.9488
B(  2-C , 10-H ) :   0.9537 B(  2-C , 11-Br) :   0.4208

Dispersion correction           -0.009813143
FINAL SINGLE POINT ENERGY     -5265.553004105695

DIPOLE MOMENT
-------------
                                X             Y             Z
Electronic contribution:     10.69833      -0.75932      10.93370
Nuclear contribution   :    -11.33657       0.58644     -11.78442
                        -----------------------------------------
Total Dipole Moment    :     -0.63824      -0.17288      -0.85071
                        -----------------------------------------
Magnitude (a.u.)       :      1.07747
Magnitude (Debye)      :      2.73872

Dispersion correction in the Hessian             ... done   (      0.6 sec)

VIBRATIONAL FREQUENCIES
-----------------------

Scaling factor for frequencies =  1.000000000  (already applied!)

   0:         0.00 cm**-1
   1:         0.00 cm**-1
   2:         0.00 cm**-1
   3:         0.00 cm**-1
   4:         0.00 cm**-1
   5:         0.00 cm**-1
   6:      -381.13 cm**-1 ***imaginary mode***
   7:        58.93 cm**-1
   8:       103.67 cm**-1
   9:       123.51 cm**-1
  10:       163.88 cm**-1
  11:       231.55 cm**-1
  12:       331.55 cm**-1
  13:       394.32 cm**-1
  14:       749.06 cm**-1
  15:       870.67 cm**-1
  16:       878.64 cm**-1
  17:       924.98 cm**-1
  18:       939.50 cm**-1
  19:      1055.81 cm**-1
  20:      1078.06 cm**-1
  21:      1157.09 cm**-1
  22:      1260.47 cm**-1
  23:      1338.68 cm**-1
  24:      1383.30 cm**-1
  25:      1411.27 cm**-1
  26:      1423.45 cm**-1
  27:      1450.80 cm**-1
  28:      1462.10 cm**-1
  29:      3047.94 cm**-1
  30:      3080.18 cm**-1
  31:      3123.40 cm**-1
  32:      3146.96 cm**-1
  33:      3153.08 cm**-1
  34:      3247.70 cm**-1
  35:      3383.03 cm**-1

IR SPECTRUM
-----------

 Mode    freq (cm**-1)   T**2         TX         TY         TZ
-------------------------------------------------------------------
   7:        58.93    0.357151  ( -0.386894  -0.307023   0.336454)
   8:       103.67    5.829922  ( -1.805024   0.416334  -1.548701)
   9:       123.51    6.329192  (  1.955566  -0.603913   1.462957)
  10:       163.88   12.858660  (  0.166226   2.432266   2.629660)
  11:       231.55    0.147670  (  0.187852   0.178576  -0.283711)
  12:       331.55   42.769864  (  4.024106   3.682619  -3.607597)
  13:       394.32    1.336055  ( -0.595299   0.926653   0.350697)
  14:       749.06   53.626544  ( -4.463887  -4.162910   4.046040)
  15:       870.67    0.249644  (  0.287867   0.190314  -0.361328)
  16:       878.64    3.930023  ( -0.399968   1.531926   1.193001)
  17:       924.98   21.568268  (  2.312224   1.088697   3.877709)
  18:       939.50  163.977550  (  7.810590   7.259809  -7.089951)
  19:      1055.81   79.781350  ( -5.417931  -5.028174   5.014463)
  20:      1078.06   10.891125  (  1.344769   0.836677   2.895288)
  21:      1157.09    0.170349  (  0.287366  -0.217166   0.201515)
  22:      1260.47   19.866342  (  2.722715   2.509107  -2.481441)
  23:      1338.68    2.383618  (  0.987599   0.127145   1.179873)
  24:      1383.30   20.980094  ( -1.747284   3.792981   1.881591)
  25:      1411.27   26.524425  ( -2.192831  -1.817915  -4.290816)
  26:      1423.45    4.922428  ( -0.579844  -1.126897  -1.821074)
  27:      1450.80    9.576280  (  1.873240   1.622538  -1.853273)
  28:      1462.10    8.343957  ( -0.682144  -1.765528  -2.182097)
  29:      3047.94   31.022093  ( -4.159422   3.529832  -1.123203)
  30:      3080.18   11.376738  ( -1.545386   2.794410   1.086181)
  31:      3123.40    8.003183  ( -1.696206  -1.637469   1.563574)
  32:      3146.96   30.734405  (  3.273787   2.930003  -3.381095)
  33:      3153.08   25.291114  ( -1.797916  -2.596670  -3.913555)
  34:      3247.70    1.724990  ( -0.733853  -0.214987  -1.067816)
  35:      3383.03    9.444872  (  1.741944  -2.468963  -0.561004)

--------------------------
THERMOCHEMISTRY AT 298.15K
--------------------------

Temperature         ... 298.15 K
Pressure            ... 1.00 atm
Total Mass          ... 202.89 AMU

Throughout the following assumptions are being made:
  (1) The electronic state is orbitally nondegenerate
  (2) There are no thermally accessible electronically excited states
  (3) Hindered rotations indicated by low frequency modes are not
      treated as such but are treated as vibrations and this may
      cause some error
  (4) All equations used are the standard statistical mechanics
      equations for an ideal gas
  (5) All vibrations are strictly harmonic

freq.      58.93  E(vib)   ...       0.51
freq.     103.67  E(vib)   ...       0.46
freq.     123.51  E(vib)   ...       0.43
freq.     163.88  E(vib)   ...       0.39
freq.     231.55  E(vib)   ...       0.32
freq.     331.55  E(vib)   ...       0.24
freq.     394.32  E(vib)   ...       0.20
freq.     749.06  E(vib)   ...       0.06
freq.     870.67  E(vib)   ...       0.04
freq.     878.64  E(vib)   ...       0.04
freq.     924.98  E(vib)   ...       0.03
freq.     939.50  E(vib)   ...       0.03
freq.    1055.81  E(vib)   ...       0.02
freq.    1078.06  E(vib)   ...       0.02
freq.    1157.09  E(vib)   ...       0.01
freq.    1260.47  E(vib)   ...       0.01
freq.    1338.68  E(vib)   ...       0.01
freq.    1383.30  E(vib)   ...       0.00
freq.    1411.27  E(vib)   ...       0.00
freq.    1423.45  E(vib)   ...       0.00
freq.    1450.80  E(vib)   ...       0.00
freq.    1462.10  E(vib)   ...       0.00
freq.    3047.94  E(vib)   ...       0.00
freq.    3080.18  E(vib)   ...       0.00
freq.    3123.40  E(vib)   ...       0.00
freq.    3146.96  E(vib)   ...       0.00
freq.    3153.08  E(vib)   ...       0.00
freq.    3247.70  E(vib)   ...       0.00
freq.    3383.03  E(vib)   ...       0.00

------------
INNER ENERGY
------------

The inner energy is: U= E(el) + E(ZPE) + E(vib) + E(rot) + E(trans)
    E(el)   - is the total energy from the electronic structure calculation
              = E(kin-el) + E(nuc-el) + E(el-el) + E(nuc-nuc)
    E(ZPE)  - the the zero temperature vibrational energy from the frequency calculation
    E(vib)  - the the finite temperature correction to E(ZPE) due to population
              of excited vibrational states
    E(rot)  - is the rotational thermal energy
    E(trans)- is the translational thermal energy

Summary of contributions to the inner energy U:
Electronic energy                ...  -5265.55300411 Eh
Zero point energy                ...      0.09334468 Eh      58.57 kcal/mol
Thermal vibrational correction   ...      0.00450616 Eh       2.83 kcal/mol
Thermal rotational correction    ...      0.00141627 Eh       0.89 kcal/mol
Thermal translational correction ...      0.00141627 Eh       0.89 kcal/mol
-----------------------------------------------------------------------
Total thermal energy                  -5265.45232073 Eh

Summary of corrections to the electronic energy:
(perhaps to be used in another calculation)
Total thermal correction                  0.00733870 Eh       4.61 kcal/mol
Non-thermal (ZPE) correction              0.09334468 Eh      58.57 kcal/mol
-----------------------------------------------------------------------
Total correction                          0.10068338 Eh      63.18 kcal/mol

--------
ENTHALPY
--------

The enthalpy is H = U + kB*T
                kB is Boltzmann's constant
Total free energy                 ...  -5265.45232073 Eh
Thermal Enthalpy correction       ...      0.00094421 Eh       0.59 kcal/mol
-----------------------------------------------------------------------
Total Enthalpy                    ...  -5265.45137652 Eh

Note: Only C1 symmetry has been detected, increase convergence thresholds
      if your molecule has a higher symmetry. Symmetry factor of 1.0 is
      used for the rotational entropy correction.

Note: Rotational entropy computed according to Herzberg
Infrared and Raman Spectra, Chapter V,1, Van Nostrand Reinhold, 1945
Point Group:  C1, Symmetry Number:   1
Rotational constants in cm-1:     0.103391     0.016484     0.014607

Vibrational entropy computed according to the QRRHO of S. Grimme
Chem.Eur.J. 2012 18 9955

-------
ENTROPY
-------

The entropy contributions are T*S = T*(S(el)+S(vib)+S(rot)+S(trans))
     S(el)   - electronic entropy
     S(vib)  - vibrational entropy
     S(rot)  - rotational entropy
     S(trans)- translational entropy
The entropies will be listed as mutliplied by the temperature to get
units of energy

Electronic entropy                ...      0.00000000 Eh      0.00 kcal/mol
Vibrational entropy               ...      0.00821289 Eh      5.15 kcal/mol
Rotational entropy                ...      0.01451538 Eh      9.11 kcal/mol
Translational entropy             ...      0.01987324 Eh     12.47 kcal/mol
-----------------------------------------------------------------------
Final entropy term                ...      0.04260151 Eh     26.73 kcal/mol

In case the symmetry of your molecule has not been determined correctly
or in case you have a reason to use a different symmetry number we print
out the resulting rotational entropy values for sn=1,12 :
 --------------------------------------------------------
|  sn= 1 | S(rot)=       0.01451538 Eh      9.11 kcal/mol|
|  sn= 2 | S(rot)=       0.01386093 Eh      8.70 kcal/mol|
|  sn= 3 | S(rot)=       0.01347809 Eh      8.46 kcal/mol|
|  sn= 4 | S(rot)=       0.01320647 Eh      8.29 kcal/mol|
|  sn= 5 | S(rot)=       0.01299578 Eh      8.15 kcal/mol|
|  sn= 6 | S(rot)=       0.01282364 Eh      8.05 kcal/mol|
|  sn= 7 | S(rot)=       0.01267809 Eh      7.96 kcal/mol|
|  sn= 8 | S(rot)=       0.01255201 Eh      7.88 kcal/mol|
|  sn= 9 | S(rot)=       0.01244080 Eh      7.81 kcal/mol|
|  sn=10 | S(rot)=       0.01234132 Eh      7.74 kcal/mol|
|  sn=11 | S(rot)=       0.01225133 Eh      7.69 kcal/mol|
|  sn=12 | S(rot)=       0.01216918 Eh      7.64 kcal/mol|
 --------------------------------------------------------

-------------------
GIBBS FREE ENERGY
-------------------

The Gibbs free energy is G = H - T*S

Total enthalpy                    ...  -5265.45137652 Eh
Total entropy correction          ...     -0.04260151 Eh    -26.73 kcal/mol
-----------------------------------------------------------------------
Final Gibbs free energy         ...  -5265.49397803 Eh

For completeness - the Gibbs free energy minus the electronic energy
G-E(el)                           ...      0.05902608 Eh     37.04 kcal/mol

                             ****ORCA TERMINATED NORMALLY****
TOTAL RUN TIME: 0 days 0 hours 4 minutes 32 seconds 863 msec
