                         Program Version 4.2.1 -  RELEASE  -
|  1> ! OptTS Freq PBE0 RIJCOSX D3BJ def2-SVP def2/J CPCM(Acetone)
|  2> %geom
|  3> modify_internal
|  4> { B 3 14 A } end
|  5> end
|  6> %geom
|  7> modify_internal
|  8> { B 3 4 A } end
|  9> end
| 10> %output
| 11> xyzfile=True
| 12> end
| 13> %scf
| 14> maxiter 250
| 15> end
| 16> %output
| 17> Print[P_Hirshfeld] = 1
| 18> end
| 19> % maxcore
| 20> 4000
| 21> %geom
| 22> Calc_Hess true
| 23> Recalc_Hess 30
| 24> Trust -0.1
| 25> MaxIter 150
| 26> end
| 27> %pal nprocs 4
| 28> end
| 29> *xyz -1 1
| 30> C     2.39274   0.14302  -0.92768
| 31> C     1.02683   0.78234  -0.69679
| 32> C     0.62904   1.74746  -1.80892
| 33> C    -0.04097  -0.25020  -0.43572
| 34> Br   -0.71578   0.18185   1.88201
| 35> H     2.37224  -0.46166  -1.84606
| 36> H     3.16903   0.91782  -1.02107
| 37> H     2.66760  -0.51504  -0.08816
| 38> H     1.09277   1.37060   0.23255
| 39> H    -0.32014   2.25414  -1.57136
| 40> H     1.39842   2.52300  -1.94482
| 41> H     0.50311   1.19464  -2.75088
| 42> H    -1.07118  -0.06902  -0.72448
| 43> H     0.21935  -1.25460  -0.11997
| 44> Br   -0.02967  -1.40001  -2.65132
| 45> *
| 46>
| 47>                          ****END OF INPUT****
 Total Charge           Charge          ....   -1
 Multiplicity           Mult            ....    1
 Number of Electrons    NEL             ....  104
Dispersion correction           -0.013691389
FINAL SINGLE POINT ENERGY     -5304.789501441935
Dispersion correction            ... done
Dispersion correction in the Hessian             ... done   (      0.9 sec)
Dispersion correction           -0.013644414
FINAL SINGLE POINT ENERGY     -5304.790182203445
Dispersion correction            ... done
Dispersion correction           -0.013597682
FINAL SINGLE POINT ENERGY     -5304.790737954966
FINAL SINGLE POINT ENERGY     -5304.791183332104
FINAL SINGLE POINT ENERGY     -5304.791543982842
FINAL SINGLE POINT ENERGY     -5304.791800324565
FINAL SINGLE POINT ENERGY     -5304.791961783572
FINAL SINGLE POINT ENERGY     -5304.792073898901
FINAL SINGLE POINT ENERGY     -5304.792109061284
FINAL SINGLE POINT ENERGY     -5304.792133254655
Dispersion correction           -0.013337055
FINAL SINGLE POINT ENERGY     -5304.792122837041
Dispersion correction            ... done
Dispersion correction           -0.013337275
FINAL SINGLE POINT ENERGY     -5304.792128735047
Dispersion correction            ... done
                    ***********************HURRAY********************

CARTESIAN COORDINATES (ANGSTROEM)
---------------------------------
  C      2.396057    0.156240   -0.908092
  C      1.019575    0.782083   -0.713722
  C      0.647038    1.749858   -1.832704
  C     -0.043437   -0.247767   -0.449369
  Br    -0.639835    0.137512    1.966631
  H      2.416953   -0.444147   -1.830318
  H      3.166646    0.938854   -0.978493
  H      2.655093   -0.502499   -0.064512
  H      1.055305    1.374816    0.215684
  H     -0.333918    2.215186   -1.647136
  H      1.391992    2.556952   -1.904225
  H      0.602764    1.221465   -2.796339
  H     -1.087473   -0.037380   -0.661526
  H      0.213211   -1.248551   -0.119046
  Br    -0.166581   -1.488283   -2.749504

 Multiplicity           Mult            ....    1
 Number of Electrons    NEL             ....  104
 Basis Dimension        Dim             ....  165

ORBITAL ENERGIES
----------------

  NO   OCC          E(Eh)            E(eV)
   0   2.0000    -483.108801    -13146.0588
   1   2.0000    -483.102128    -13145.8772
   2   2.0000     -62.544280     -1701.9164
   3   2.0000     -62.537274     -1701.7258
   4   2.0000     -56.332762     -1532.8924
   5   2.0000     -56.331722     -1532.8641
   6   2.0000     -56.331638     -1532.8618
   7   2.0000     -56.325681     -1532.6997
   8   2.0000     -56.324786     -1532.6754
   9   2.0000     -56.324703     -1532.6731
  10   2.0000     -10.292951      -280.0854
  11   2.0000     -10.237096      -278.5656
  12   2.0000     -10.213521      -277.9240
  13   2.0000     -10.212910      -277.9074
  14   2.0000      -8.688157      -236.4168
  15   2.0000      -8.680965      -236.2211
  16   2.0000      -6.497742      -176.8126
  17   2.0000      -6.492763      -176.6771
  18   2.0000      -6.492658      -176.6742
  19   2.0000      -6.489999      -176.6018
  20   2.0000      -6.485848      -176.4889
  21   2.0000      -6.485770      -176.4868
  22   2.0000      -2.584000       -70.3142
  23   2.0000      -2.582687       -70.2785
  24   2.0000      -2.582603       -70.2762
  25   2.0000      -2.578612       -70.1676
  26   2.0000      -2.578599       -70.1673
  27   2.0000      -2.576355       -70.1062
  28   2.0000      -2.575252       -70.0762
  29   2.0000      -2.575199       -70.0747
  30   2.0000      -2.571873       -69.9842
  31   2.0000      -2.571853       -69.9837
  32   2.0000      -0.823838       -22.4178
  33   2.0000      -0.714731       -19.4488
  34   2.0000      -0.692477       -18.8432
  35   2.0000      -0.687318       -18.7029
  36   2.0000      -0.663793       -18.0627
  37   2.0000      -0.565365       -15.3844
  38   2.0000      -0.467820       -12.7300
  39   2.0000      -0.462259       -12.5787
  40   2.0000      -0.444399       -12.0927
  41   2.0000      -0.388777       -10.5792
  42   2.0000      -0.376440       -10.2434
  43   2.0000      -0.361242        -9.8299
  44   2.0000      -0.343034        -9.3344
  45   2.0000      -0.341707        -9.2983
  46   2.0000      -0.284802        -7.7499
  47   2.0000      -0.246998        -6.7212
  48   2.0000      -0.245235        -6.6732
  49   2.0000      -0.239730        -6.5234
  50   2.0000      -0.238887        -6.5005
  51   2.0000      -0.225984        -6.1493
  52   0.0000      -0.038816        -1.0562
  53   0.0000       0.083043         2.2597
  54   0.0000       0.127371         3.4659
  55   0.0000       0.131594         3.5809
  56   0.0000       0.143365         3.9012

MULLIKEN ATOMIC CHARGES
-----------------------
   0 C :   -0.057186
   1 C :   -0.182807
   2 C :   -0.047746
   3 C :    0.038681
   4 Br:   -0.640992
   5 H :    0.038110
   6 H :    0.046908
   7 H :    0.047283
   8 H :    0.075301
   9 H :    0.044368
  10 H :    0.046425
  11 H :    0.036608
  12 H :    0.111528
  13 H :    0.112641
  14 Br:   -0.669122
Sum of atomic charges:   -1.0000000

LOEWDIN ATOMIC CHARGES
----------------------
   0 C :   -0.066511
   1 C :   -0.077145
   2 C :   -0.065229
   3 C :    0.078776
   4 Br:   -0.546078
   5 H :    0.019142
   6 H :    0.030892
   7 H :    0.030602
   8 H :    0.043912
   9 H :    0.030610
  10 H :    0.030378
  11 H :    0.015612
  12 H :    0.030070
  13 H :    0.027702
  14 Br:   -0.582733

  Mayer bond orders larger than 0.100000
B(  0-C ,  1-C ) :   1.0524 B(  0-C ,  5-H ) :   0.9629 B(  0-C ,  6-H ) :   0.9669
B(  0-C ,  7-H ) :   0.9660 B(  1-C ,  2-C ) :   1.0495 B(  1-C ,  3-C ) :   1.0446
B(  1-C ,  8-H ) :   0.9006 B(  2-C ,  9-H ) :   0.9666 B(  2-C , 10-H ) :   0.9672
B(  2-C , 11-H ) :   0.9606 B(  3-C ,  4-Br) :   0.4588 B(  3-C , 12-H ) :   0.9477
B(  3-C , 13-H ) :   0.9479 B(  3-C , 14-Br) :   0.3674

Dispersion correction           -0.013337022
FINAL SINGLE POINT ENERGY     -5304.792127937902

DIPOLE MOMENT
-------------
                                X             Y             Z
Electronic contribution:    -15.67003     -13.76313       7.32610
Nuclear contribution   :     16.66500      14.85689      -7.48153
                        -----------------------------------------
Total Dipole Moment    :      0.99497       1.09376      -0.15543
                        -----------------------------------------
Magnitude (a.u.)       :      1.48675
Magnitude (Debye)      :      3.77902

Dispersion correction in the Hessian             ... done   (      0.8 sec)

VIBRATIONAL FREQUENCIES
-----------------------

Scaling factor for frequencies =  1.000000000  (already applied!)

   0:         0.00 cm**-1
   1:         0.00 cm**-1
   2:         0.00 cm**-1
   3:         0.00 cm**-1
   4:         0.00 cm**-1
   5:         0.00 cm**-1
   6:      -353.16 cm**-1 ***imaginary mode***
   7:        34.35 cm**-1
   8:        99.29 cm**-1
   9:       128.86 cm**-1
  10:       145.75 cm**-1
  11:       164.89 cm**-1
  12:       236.28 cm**-1
  13:       250.19 cm**-1
  14:       363.33 cm**-1
  15:       395.29 cm**-1
  16:       500.81 cm**-1
  17:       819.81 cm**-1
  18:       846.19 cm**-1
  19:       908.33 cm**-1
  20:       929.93 cm**-1
  21:       937.27 cm**-1
  22:       974.42 cm**-1
  23:       982.17 cm**-1
  24:      1073.73 cm**-1
  25:      1189.12 cm**-1
  26:      1206.53 cm**-1
  27:      1301.33 cm**-1
  28:      1312.75 cm**-1
  29:      1368.97 cm**-1
  30:      1375.81 cm**-1
  31:      1416.74 cm**-1
  32:      1439.02 cm**-1
  33:      1450.52 cm**-1
  34:      1450.72 cm**-1
  35:      1468.96 cm**-1
  36:      3049.60 cm**-1
  37:      3052.66 cm**-1
  38:      3075.20 cm**-1
  39:      3145.26 cm**-1
  40:      3147.99 cm**-1
  41:      3156.54 cm**-1
  42:      3162.04 cm**-1
  43:      3247.92 cm**-1
  44:      3385.82 cm**-1

IR SPECTRUM
-----------

 Mode    freq (cm**-1)   T**2         TX         TY         TZ
-------------------------------------------------------------------
   7:        34.35    1.933764  (  0.926595  -0.872111   0.560899)
   8:        99.29    3.704842  ( -1.478282  -1.188216   0.328126)
   9:       128.86   11.171116  ( -2.604230  -2.091316   0.124491)
  10:       145.75    6.079828  ( -1.005807   2.165072  -0.616964)
  11:       164.89    5.746884  (  0.063714  -0.806037  -2.256796)
  12:       236.28    1.038820  ( -0.505342   0.619921  -0.631780)
  13:       250.19   12.478018  ( -0.073204   1.508321   3.193372)
  14:       363.33    6.228270  (  1.317811   0.820103  -1.954246)
  15:       395.29    1.612277  (  0.749528  -0.561028   0.857748)
  16:       500.81  168.715764  (  0.574134  -5.025854 -11.963566)
  17:       819.81   17.353715  ( -2.665979  -3.139093   0.626392)
  18:       846.19    3.030851  (  1.212735  -0.696251   1.036995)
  19:       908.33    4.769324  ( -1.298159   1.718752   0.360550)
  20:       929.93  180.054509  ( -1.412725   4.210752  12.662081)
  21:       937.27    1.292767  (  0.479582  -0.904063   0.495416)
  22:       974.42    1.556630  ( -1.039959  -0.617512   0.306259)
  23:       982.17   26.761264  ( -3.595896  -3.548145   1.114209)
  24:      1073.73   43.573872  (  1.882896  -0.863584  -6.267599)
  25:      1189.12    0.885680  (  0.666792  -0.655507   0.106670)
  26:      1206.53    5.509213  ( -0.647807   0.283479   2.238124)
  27:      1301.33    9.203792  (  0.818124  -0.263280  -2.909493)
  28:      1312.75    1.789415  ( -0.214199   0.613854   1.169067)
  29:      1368.97   12.319407  (  2.475085  -2.194717   1.173276)
  30:      1375.81    6.536667  (  2.243005   0.873507  -0.861732)
  31:      1416.74    3.392921  (  0.445598  -0.427564  -1.735383)
  32:      1439.02    0.836625  ( -0.705262   0.571956  -0.109987)
  33:      1450.52   12.434479  (  1.107607  -0.859709  -3.235519)
  34:      1450.72    3.393895  ( -0.118574  -0.013096  -1.838386)
  35:      1468.96   20.630101  (  2.941622   3.434872  -0.422626)
  36:      3049.60   48.895213  ( -4.905858   4.468120  -2.205375)
  37:      3052.66   25.235186  (  3.248373   3.256948  -2.018800)
  38:      3075.20   15.575813  (  1.286970  -0.655990  -3.672765)
  39:      3145.26   32.110576  ( -5.533581  -0.683979   1.011051)
  40:      3147.99   29.890905  (  1.305738   3.844078  -3.661833)
  41:      3156.54   10.689760  (  1.500359   2.241085   1.848301)
  42:      3162.04   18.062004  ( -0.708502  -3.069137  -2.853143)
  43:      3247.92    3.890730  (  1.229786   1.009832  -1.165589)
  44:      3385.82    9.364035  ( -2.201578   1.944933  -0.856929)

--------------------------
THERMOCHEMISTRY AT 298.15K
--------------------------

Temperature         ... 298.15 K
Pressure            ... 1.00 atm
Total Mass          ... 216.92 AMU

Throughout the following assumptions are being made:
  (1) The electronic state is orbitally nondegenerate
  (2) There are no thermally accessible electronically excited states
  (3) Hindered rotations indicated by low frequency modes are not
      treated as such but are treated as vibrations and this may
      cause some error
  (4) All equations used are the standard statistical mechanics
      equations for an ideal gas
  (5) All vibrations are strictly harmonic

freq.      34.35  E(vib)   ...       0.54
freq.      99.29  E(vib)   ...       0.46
freq.     128.86  E(vib)   ...       0.43
freq.     145.75  E(vib)   ...       0.41
freq.     164.89  E(vib)   ...       0.39
freq.     236.28  E(vib)   ...       0.32
freq.     250.19  E(vib)   ...       0.31
freq.     363.33  E(vib)   ...       0.22
freq.     395.29  E(vib)   ...       0.20
freq.     500.81  E(vib)   ...       0.14
freq.     819.81  E(vib)   ...       0.05
freq.     846.19  E(vib)   ...       0.04
freq.     908.33  E(vib)   ...       0.03
freq.     929.93  E(vib)   ...       0.03
freq.     937.27  E(vib)   ...       0.03
freq.     974.42  E(vib)   ...       0.03
freq.     982.17  E(vib)   ...       0.02
freq.    1073.73  E(vib)   ...       0.02
freq.    1189.12  E(vib)   ...       0.01
freq.    1206.53  E(vib)   ...       0.01
freq.    1301.33  E(vib)   ...       0.01
freq.    1312.75  E(vib)   ...       0.01
freq.    1368.97  E(vib)   ...       0.01
freq.    1375.81  E(vib)   ...       0.01
freq.    1416.74  E(vib)   ...       0.00
freq.    1439.02  E(vib)   ...       0.00
freq.    1450.52  E(vib)   ...       0.00
freq.    1450.72  E(vib)   ...       0.00
freq.    1468.96  E(vib)   ...       0.00
freq.    3049.60  E(vib)   ...       0.00
freq.    3052.66  E(vib)   ...       0.00
freq.    3075.20  E(vib)   ...       0.00
freq.    3145.26  E(vib)   ...       0.00
freq.    3147.99  E(vib)   ...       0.00
freq.    3156.54  E(vib)   ...       0.00
freq.    3162.04  E(vib)   ...       0.00
freq.    3247.92  E(vib)   ...       0.00
freq.    3385.82  E(vib)   ...       0.00

------------
INNER ENERGY
------------

The inner energy is: U= E(el) + E(ZPE) + E(vib) + E(rot) + E(trans)
    E(el)   - is the total energy from the electronic structure calculation
              = E(kin-el) + E(nuc-el) + E(el-el) + E(nuc-nuc)
    E(ZPE)  - the the zero temperature vibrational energy from the frequency calculation
    E(vib)  - the the finite temperature correction to E(ZPE) due to population
              of excited vibrational states
    E(rot)  - is the rotational thermal energy
    E(trans)- is the translational thermal energy

Summary of contributions to the inner energy U:
Electronic energy                ...  -5304.79212794 Eh
Zero point energy                ...      0.12118573 Eh      76.05 kcal/mol
Thermal vibrational correction   ...      0.00592759 Eh       3.72 kcal/mol
Thermal rotational correction    ...      0.00141627 Eh       0.89 kcal/mol
Thermal translational correction ...      0.00141627 Eh       0.89 kcal/mol
-----------------------------------------------------------------------
Total thermal energy                  -5304.66218208 Eh

Summary of corrections to the electronic energy:
(perhaps to be used in another calculation)
Total thermal correction                  0.00876013 Eh       5.50 kcal/mol
Non-thermal (ZPE) correction              0.12118573 Eh      76.05 kcal/mol
-----------------------------------------------------------------------
Total correction                          0.12994586 Eh      81.54 kcal/mol

--------
ENTHALPY
--------

The enthalpy is H = U + kB*T
                kB is Boltzmann's constant
Total free energy                 ...  -5304.66218208 Eh
Thermal Enthalpy correction       ...      0.00094421 Eh       0.59 kcal/mol
-----------------------------------------------------------------------
Total Enthalpy                    ...  -5304.66123787 Eh

Note: Only C1 symmetry has been detected, increase convergence thresholds
      if your molecule has a higher symmetry. Symmetry factor of 1.0 is
      used for the rotational entropy correction.

Note: Rotational entropy computed according to Herzberg
Infrared and Raman Spectra, Chapter V,1, Van Nostrand Reinhold, 1945
Point Group:  C1, Symmetry Number:   1
Rotational constants in cm-1:     0.061789     0.015673     0.013648

Vibrational entropy computed according to the QRRHO of S. Grimme
Chem.Eur.J. 2012 18 9955

-------
ENTROPY
-------

The entropy contributions are T*S = T*(S(el)+S(vib)+S(rot)+S(trans))
     S(el)   - electronic entropy
     S(vib)  - vibrational entropy
     S(rot)  - rotational entropy
     S(trans)- translational entropy
The entropies will be listed as mutliplied by the temperature to get
units of energy

Electronic entropy                ...      0.00000000 Eh      0.00 kcal/mol
Vibrational entropy               ...      0.01079364 Eh      6.77 kcal/mol
Rotational entropy                ...      0.01481426 Eh      9.30 kcal/mol
Translational entropy             ...      0.01996792 Eh     12.53 kcal/mol
-----------------------------------------------------------------------
Final entropy term                ...      0.04557582 Eh     28.60 kcal/mol

In case the symmetry of your molecule has not been determined correctly
or in case you have a reason to use a different symmetry number we print
out the resulting rotational entropy values for sn=1,12 :
 --------------------------------------------------------
|  sn= 1 | S(rot)=       0.01481426 Eh      9.30 kcal/mol|
|  sn= 2 | S(rot)=       0.01415981 Eh      8.89 kcal/mol|
|  sn= 3 | S(rot)=       0.01377697 Eh      8.65 kcal/mol|
|  sn= 4 | S(rot)=       0.01350535 Eh      8.47 kcal/mol|
|  sn= 5 | S(rot)=       0.01329466 Eh      8.34 kcal/mol|
|  sn= 6 | S(rot)=       0.01312252 Eh      8.23 kcal/mol|
|  sn= 7 | S(rot)=       0.01297697 Eh      8.14 kcal/mol|
|  sn= 8 | S(rot)=       0.01285089 Eh      8.06 kcal/mol|
|  sn= 9 | S(rot)=       0.01273968 Eh      7.99 kcal/mol|
|  sn=10 | S(rot)=       0.01264020 Eh      7.93 kcal/mol|
|  sn=11 | S(rot)=       0.01255021 Eh      7.88 kcal/mol|
|  sn=12 | S(rot)=       0.01246806 Eh      7.82 kcal/mol|
 --------------------------------------------------------

-------------------
GIBBS FREE ENERGY
-------------------

The Gibbs free energy is G = H - T*S

Total enthalpy                    ...  -5304.66123787 Eh
Total entropy correction          ...     -0.04557582 Eh    -28.60 kcal/mol
-----------------------------------------------------------------------
Final Gibbs free energy         ...  -5304.70681369 Eh

                             ****ORCA TERMINATED NORMALLY****
TOTAL RUN TIME: 0 days 0 hours 7 minutes 10 seconds 715 msec
