                         Program Version 4.2.1 -  RELEASE  -
|  1> ! OptTS Freq PBE0 RIJCOSX D3BJ def2-SVP def2/J CPCM(Acetone)
|  2> %geom
|  3> modify_internal
|  4> { B 1 8 A } end
|  5> end
|  6> %geom
|  7> modify_internal
|  8> { B 1 2 A } end
|  9> end
| 10> %output
| 11> xyzfile=True
| 12> end
| 13> %scf
| 14> maxiter 250
| 15> end
| 16> %output
| 17> Print[P_Hirshfeld] = 1
| 18> end
| 19> % maxcore
| 20> 4000
| 21> %geom
| 22> Calc_Hess true
| 23> Recalc_Hess 30
| 24> Trust -0.1
| 25> MaxIter 150
| 26> end
| 27> %pal nprocs 4
| 28> end
| 29> *xyz -1 1
| 30> C    -1.58783  -0.30343   0.81646
| 31> C    -0.39650  -0.68610  -0.00010
| 32> Br    0.76468   1.51907   0.02157
| 33> H    -2.28991  -1.14878   0.83567
| 34> H    -1.29677  -0.05864   1.84739
| 35> H    -2.09829   0.56398   0.37749
| 36> H    -0.41885  -0.61413  -1.08261
| 37> H     0.49986  -1.09077   0.45547
| 38> Br   -0.89187  -3.02169  -0.39435
| 39> *
| 40>
| 41>                          ****END OF INPUT****
 Total Charge           Charge          ....   -1
 Multiplicity           Mult            ....    1
 Number of Electrons    NEL             ....   88
Dispersion correction           -0.006824886
FINAL SINGLE POINT ENERGY     -5226.308625746348
Dispersion correction            ... done
Dispersion correction in the Hessian             ... done   (      0.5 sec)
Dispersion correction           -0.006775980
FINAL SINGLE POINT ENERGY     -5226.309821386237
Dispersion correction            ... done
Dispersion correction           -0.006728867
FINAL SINGLE POINT ENERGY     -5226.310528972149
FINAL SINGLE POINT ENERGY     -5226.310757472539
FINAL SINGLE POINT ENERGY     -5226.310836904255
FINAL SINGLE POINT ENERGY     -5226.310859256086
FINAL SINGLE POINT ENERGY     -5226.310873850436
FINAL SINGLE POINT ENERGY     -5226.310880820337
FINAL SINGLE POINT ENERGY     -5226.310886631822
FINAL SINGLE POINT ENERGY     -5226.310891552796
FINAL SINGLE POINT ENERGY     -5226.310892586947
FINAL SINGLE POINT ENERGY     -5226.310889517817
FINAL SINGLE POINT ENERGY     -5226.310883204097
FINAL SINGLE POINT ENERGY     -5226.310878826000
FINAL SINGLE POINT ENERGY     -5226.310874335186
FINAL SINGLE POINT ENERGY     -5226.310867757998
FINAL SINGLE POINT ENERGY     -5226.310862556043
Dispersion correction           -0.006657132
FINAL SINGLE POINT ENERGY     -5226.310859445278
Dispersion correction            ... done
Dispersion correction           -0.006658585
FINAL SINGLE POINT ENERGY     -5226.310856599238
Dispersion correction            ... done
                    ***********************HURRAY********************

CARTESIAN COORDINATES (ANGSTROEM)
---------------------------------
  C     -1.594423   -0.313326    0.821951
  C     -0.406631   -0.674540   -0.005855
  Br     0.734441    1.595891   -0.133033
  H     -2.441998   -0.962651    0.564131
  H     -1.382739   -0.413573    1.895286
  H     -1.894587    0.723135    0.612390
  H     -0.464672   -0.634053   -1.090351
  H      0.535516   -0.981895    0.433276
  Br    -0.800387   -3.179477   -0.220805

 Multiplicity           Mult            ....    1
 Number of Electrons    NEL             ....   88
 Basis Dimension        Dim             ....  117

ORBITAL ENERGIES
----------------

  NO   OCC          E(Eh)            E(eV)
   0   2.0000    -483.105370    -13145.9655
   1   2.0000    -483.105309    -13145.9638
   2   2.0000     -62.540840     -1701.8228
   3   2.0000     -62.540786     -1701.8213
   4   2.0000     -56.329258     -1532.7970
   5   2.0000     -56.329206     -1532.7956
   6   2.0000     -56.328328     -1532.7717
   7   2.0000     -56.328279     -1532.7704
   8   2.0000     -56.328223     -1532.7689
   9   2.0000     -56.328164     -1532.7673
  10   2.0000     -10.296697      -280.1874
  11   2.0000     -10.225665      -278.2545
  12   2.0000      -8.684693      -236.3225
  13   2.0000      -8.684638      -236.3210
  14   2.0000      -6.494133      -176.7144
  15   2.0000      -6.494085      -176.7130
  16   2.0000      -6.489390      -176.5853
  17   2.0000      -6.489332      -176.5837
  18   2.0000      -6.489275      -176.5821
  19   2.0000      -6.489211      -176.5804
  20   2.0000      -2.580409       -70.2165
  21   2.0000      -2.580344       -70.2147
  22   2.0000      -2.579166       -70.1827
  23   2.0000      -2.579139       -70.1819
  24   2.0000      -2.579052       -70.1796
  25   2.0000      -2.579008       -70.1784
  26   2.0000      -2.575275       -70.0768
  27   2.0000      -2.575265       -70.0765
  28   2.0000      -2.575212       -70.0751
  29   2.0000      -2.575200       -70.0748
  30   2.0000      -0.783160       -21.3109
  31   2.0000      -0.694453       -18.8970
  32   2.0000      -0.688733       -18.7414
  33   2.0000      -0.613728       -16.7004
  34   2.0000      -0.472647       -12.8614
  35   2.0000      -0.422840       -11.5061
  36   2.0000      -0.413456       -11.2507
  37   2.0000      -0.369617       -10.0578
  38   2.0000      -0.288249        -7.8437
  39   2.0000      -0.246743        -6.7142
  40   2.0000      -0.245309        -6.6752
  41   2.0000      -0.241356        -6.5676
  42   2.0000      -0.240806        -6.5527
  43   2.0000      -0.227178        -6.1818
  44   0.0000      -0.036155        -0.9838
  45   0.0000       0.095390         2.5957
  46   0.0000       0.128029         3.4838
  47   0.0000       0.135235         3.6799
  48   0.0000       0.168105         4.5744

MULLIKEN ATOMIC CHARGES
-----------------------
   0 C :   -0.061495
   1 C :   -0.058475
   2 Br:   -0.665935
   3 H :    0.068861
   4 H :    0.068753
   5 H :    0.066809
   6 H :    0.120716
   7 H :    0.125804
   8 Br:   -0.665038
Sum of atomic charges:   -1.0000000

LOEWDIN ATOMIC CHARGES
----------------------
   0 C :   -0.095823
   1 C :    0.055803
   2 Br:   -0.573116
   3 H :    0.040195
   4 H :    0.042388
   5 H :    0.040071
   6 H :    0.033957
   7 H :    0.028900
   8 Br:   -0.572375

  Mayer bond orders larger than 0.100000
B(  0-C ,  1-C ) :   1.0886 B(  0-C ,  3-H ) :   0.9477 B(  0-C ,  4-H ) :   0.9704
B(  0-C ,  5-H ) :   0.9468 B(  1-C ,  2-Br) :   0.4226 B(  1-C ,  6-H ) :   0.9530
B(  1-C ,  7-H ) :   0.9537 B(  1-C ,  8-Br) :   0.4231

Dispersion correction           -0.006658638
FINAL SINGLE POINT ENERGY     -5226.310857519698

DIPOLE MOMENT
-------------
                                X             Y             Z
Electronic contribution:      6.58470      -2.03085      -4.01847
Nuclear contribution   :     -7.25886       2.23646       4.37241
                        -----------------------------------------
Total Dipole Moment    :     -0.67416       0.20561       0.35394
                        -----------------------------------------
Magnitude (a.u.)       :      0.78870
Magnitude (Debye)      :      2.00471

Dispersion correction in the Hessian             ... done   (      0.5 sec)

VIBRATIONAL FREQUENCIES
-----------------------

Scaling factor for frequencies =  1.000000000  (already applied!)

   0:         0.00 cm**-1
   1:         0.00 cm**-1
   2:         0.00 cm**-1
   3:         0.00 cm**-1
   4:         0.00 cm**-1
   5:         0.00 cm**-1
   6:      -387.71 cm**-1 ***imaginary mode***
   7:        44.70 cm**-1
   8:       111.79 cm**-1
   9:       147.77 cm**-1
  10:       176.63 cm**-1
  11:       298.96 cm**-1
  12:       798.94 cm**-1
  13:       865.37 cm**-1
  14:       928.38 cm**-1
  15:       996.50 cm**-1
  16:      1058.58 cm**-1
  17:      1175.35 cm**-1
  18:      1348.61 cm**-1
  19:      1418.87 cm**-1
  20:      1429.23 cm**-1
  21:      1444.25 cm**-1
  22:      3074.23 cm**-1
  23:      3169.04 cm**-1
  24:      3185.27 cm**-1
  25:      3251.85 cm**-1
  26:      3388.20 cm**-1

IR SPECTRUM
-----------

 Mode    freq (cm**-1)   T**2         TX         TY         TZ
-------------------------------------------------------------------
   7:        44.70   16.332536  (  1.224350   3.851246   0.037525)
   8:       111.79    0.775730  ( -0.671797   0.216369   0.526881)
   9:       147.77   14.837606  ( -2.891582   0.972199   2.351848)
  10:       176.63    9.422710  ( -2.315422   0.864621  -1.820428)
  11:       298.96   25.308704  (  1.555948   4.783467   0.078592)
  12:       798.94    8.741459  ( -2.067737   0.638577  -2.014483)
  13:       865.37    1.091325  (  0.297809   1.001304   0.004931)
  14:       928.38   50.924119  (  2.233096   6.777212   0.082495)
  15:       996.50  272.832411  (  4.942814  15.756975   0.344577)
  16:      1058.58   20.773459  ( -4.089984   1.182560   1.626973)
  17:      1175.35    2.092188  ( -1.088705   0.401446  -0.863569)
  18:      1348.61   31.408852  (  5.204309  -1.596479  -1.332395)
  19:      1418.87   14.644560  ( -3.640700   1.150380  -0.257852)
  20:      1429.23    1.661348  (  0.418904   1.200407   0.211876)
  21:      1444.25    6.204696  (  1.351784  -0.489125   2.034240)
  22:      3074.23    7.177518  (  1.802846  -0.788039  -1.818312)
  23:      3169.04   13.508726  (  1.057996   3.496390  -0.405744)
  24:      3185.27    6.890006  (  0.471662   0.302658   2.564360)
  25:      3251.85    1.437058  ( -0.964375   0.285867   0.652164)
  26:      3388.20   11.033059  (  1.756112  -0.614901   2.751550)

--------------------------
THERMOCHEMISTRY AT 298.15K
--------------------------

Temperature         ... 298.15 K
Pressure            ... 1.00 atm
Total Mass          ... 188.86 AMU

Throughout the following assumptions are being made:
  (1) The electronic state is orbitally nondegenerate
  (2) There are no thermally accessible electronically excited states
  (3) Hindered rotations indicated by low frequency modes are not
      treated as such but are treated as vibrations and this may
      cause some error
  (4) All equations used are the standard statistical mechanics
      equations for an ideal gas
  (5) All vibrations are strictly harmonic

freq.      44.70  E(vib)   ...       0.53
freq.     111.79  E(vib)   ...       0.45
freq.     147.77  E(vib)   ...       0.41
freq.     176.63  E(vib)   ...       0.38
freq.     298.96  E(vib)   ...       0.26
freq.     798.94  E(vib)   ...       0.05
freq.     865.37  E(vib)   ...       0.04
freq.     928.38  E(vib)   ...       0.03
freq.     996.50  E(vib)   ...       0.02
freq.    1058.58  E(vib)   ...       0.02
freq.    1175.35  E(vib)   ...       0.01
freq.    1348.61  E(vib)   ...       0.01
freq.    1418.87  E(vib)   ...       0.00
freq.    1429.23  E(vib)   ...       0.00
freq.    1444.25  E(vib)   ...       0.00
freq.    3074.23  E(vib)   ...       0.00
freq.    3169.04  E(vib)   ...       0.00
freq.    3185.27  E(vib)   ...       0.00
freq.    3251.85  E(vib)   ...       0.00
freq.    3388.20  E(vib)   ...       0.00

------------
INNER ENERGY
------------

The inner energy is: U= E(el) + E(ZPE) + E(vib) + E(rot) + E(trans)
    E(el)   - is the total energy from the electronic structure calculation
              = E(kin-el) + E(nuc-el) + E(el-el) + E(nuc-nuc)
    E(ZPE)  - the the zero temperature vibrational energy from the frequency calculation
    E(vib)  - the the finite temperature correction to E(ZPE) due to population
              of excited vibrational states
    E(rot)  - is the rotational thermal energy
    E(trans)- is the translational thermal energy

Summary of contributions to the inner energy U:
Electronic energy                ...  -5226.31085752 Eh
Zero point energy                ...      0.06450067 Eh      40.47 kcal/mol
Thermal vibrational correction   ...      0.00352814 Eh       2.21 kcal/mol
Thermal rotational correction    ...      0.00141627 Eh       0.89 kcal/mol
Thermal translational correction ...      0.00141627 Eh       0.89 kcal/mol
-----------------------------------------------------------------------
Total thermal energy                  -5226.23999617 Eh

Summary of corrections to the electronic energy:
(perhaps to be used in another calculation)
Total thermal correction                  0.00636068 Eh       3.99 kcal/mol
Non-thermal (ZPE) correction              0.06450067 Eh      40.47 kcal/mol
-----------------------------------------------------------------------
Total correction                          0.07086135 Eh      44.47 kcal/mol

--------
ENTHALPY
--------

The enthalpy is H = U + kB*T
                kB is Boltzmann's constant
Total free energy                 ...  -5226.23999617 Eh
Thermal Enthalpy correction       ...      0.00094421 Eh       0.59 kcal/mol
-----------------------------------------------------------------------
Total Enthalpy                    ...  -5226.23905196 Eh

Note: Only C1 symmetry has been detected, increase convergence thresholds
      if your molecule has a higher symmetry. Symmetry factor of 1.0 is
      used for the rotational entropy correction.

Note: Rotational entropy computed according to Herzberg
Infrared and Raman Spectra, Chapter V,1, Van Nostrand Reinhold, 1945
Point Group:  C1, Symmetry Number:   1
Rotational constants in cm-1:     0.284770     0.016684     0.015861

Vibrational entropy computed according to the QRRHO of S. Grimme
Chem.Eur.J. 2012 18 9955

-------
ENTROPY
-------

The entropy contributions are T*S = T*(S(el)+S(vib)+S(rot)+S(trans))
     S(el)   - electronic entropy
     S(vib)  - vibrational entropy
     S(rot)  - rotational entropy
     S(trans)- translational entropy
The entropies will be listed as mutliplied by the temperature to get
units of energy

Electronic entropy                ...      0.00000000 Eh      0.00 kcal/mol
Vibrational entropy               ...      0.00664016 Eh      4.17 kcal/mol
Rotational entropy                ...      0.01399250 Eh      8.78 kcal/mol
Translational entropy             ...      0.01977177 Eh     12.41 kcal/mol
-----------------------------------------------------------------------
Final entropy term                ...      0.04040443 Eh     25.35 kcal/mol

In case the symmetry of your molecule has not been determined correctly
or in case you have a reason to use a different symmetry number we print
out the resulting rotational entropy values for sn=1,12 :
 --------------------------------------------------------
|  sn= 1 | S(rot)=       0.01399250 Eh      8.78 kcal/mol|
|  sn= 2 | S(rot)=       0.01333804 Eh      8.37 kcal/mol|
|  sn= 3 | S(rot)=       0.01295521 Eh      8.13 kcal/mol|
|  sn= 4 | S(rot)=       0.01268358 Eh      7.96 kcal/mol|
|  sn= 5 | S(rot)=       0.01247290 Eh      7.83 kcal/mol|
|  sn= 6 | S(rot)=       0.01230075 Eh      7.72 kcal/mol|
|  sn= 7 | S(rot)=       0.01215521 Eh      7.63 kcal/mol|
|  sn= 8 | S(rot)=       0.01202913 Eh      7.55 kcal/mol|
|  sn= 9 | S(rot)=       0.01191792 Eh      7.48 kcal/mol|
|  sn=10 | S(rot)=       0.01181844 Eh      7.42 kcal/mol|
|  sn=11 | S(rot)=       0.01172845 Eh      7.36 kcal/mol|
|  sn=12 | S(rot)=       0.01164630 Eh      7.31 kcal/mol|
 --------------------------------------------------------

-------------------
GIBBS FREE ENERGY
-------------------

The Gibbs free energy is G = H - T*S

Total enthalpy                    ...  -5226.23905196 Eh
Total entropy correction          ...     -0.04040443 Eh    -25.35 kcal/mol
-----------------------------------------------------------------------
Final Gibbs free energy         ...  -5226.27945639 Eh

For completeness - the Gibbs free energy minus the electronic energy
G-E(el)                           ...      0.03140113 Eh     19.70 kcal/mol

                             ****ORCA TERMINATED NORMALLY****
TOTAL RUN TIME: 0 days 0 hours 5 minutes 45 seconds 600 msec
