                         Program Version 4.2.1 -  RELEASE  -
|  1> ! OptTS Freq PBE0 RIJCOSX D3BJ def2-SVP def2/J CPCM(Acetone)
|  2> %geom
|  3> modify_internal
|  4> { B 2 11 A } end
|  5> end
|  6> %geom
|  7> modify_internal
|  8> { B 2 3 A } end
|  9> end
| 10> %output
| 11> xyzfile=True
| 12> end
| 13> %scf
| 14> maxiter 250
| 15> end
| 16> %output
| 17> Print[P_Hirshfeld] = 1
| 18> end
| 19> % maxcore
| 20> 4000
| 21> %geom
| 22> Calc_Hess true
| 23> Recalc_Hess 30
| 24> Trust -0.1
| 25> MaxIter 150
| 26> end
| 27> %pal nprocs 4
| 28> end
| 29> *xyz -1 1
| 30>   C   5.13256404858240     -0.19402183812454     -0.49635643549104
| 31>   C   6.36235387795983     -0.28893589094575      0.38525358767899
| 32>   C   7.07743534164049      0.99564587606444      0.60464045455102
| 33>   I   10.11113955233000      0.02354206221644     -0.90012932849194
| 34>   H   4.69224154120904     -1.18663503068095     -0.67049999294523
| 35>   H   5.38894379415073      0.24297024327507     -1.47497691349926
| 36>   H   4.36894540881260      0.44326580386111     -0.02677739799974
| 37>   H   7.12391249330070     -0.94022090974764     -0.08625388353603
| 38>   H   6.12488545474469     -0.75080144636227      1.35696926936221
| 39>   H   7.23208938111635      1.63868600412016     -0.26673090538716
| 40>   H   7.92382332851851      0.99038707097573      1.29502256213033
| 41>   Cl  5.74618819763465      2.27425399534820      1.73017770362785
| 42> *
| 43>
| 44>                          ****END OF INPUT****
 Total Charge           Charge          ....   -1
 Multiplicity           Mult            ....    1
 Number of Electrons    NEL             ....   68
Dispersion correction           -0.008996918
FINAL SINGLE POINT ENERGY      -876.095013800891
Dispersion correction            ... done
Dispersion correction in the Hessian             ... done   (      0.6 sec)
Dispersion correction           -0.009018837
FINAL SINGLE POINT ENERGY      -876.096074967802
Dispersion correction            ... done
Dispersion correction           -0.009058647
FINAL SINGLE POINT ENERGY      -876.096698872473
FINAL SINGLE POINT ENERGY      -876.097270583248
FINAL SINGLE POINT ENERGY      -876.097732978304
FINAL SINGLE POINT ENERGY      -876.098082423717
FINAL SINGLE POINT ENERGY      -876.098319599965
FINAL SINGLE POINT ENERGY      -876.098461391102
FINAL SINGLE POINT ENERGY      -876.098472984395
FINAL SINGLE POINT ENERGY      -876.098426711148
FINAL SINGLE POINT ENERGY      -876.071470089346
FINAL SINGLE POINT ENERGY      -876.071543168798
FINAL SINGLE POINT ENERGY      -876.071614329514
FINAL SINGLE POINT ENERGY      -876.071671656603
FINAL SINGLE POINT ENERGY      -876.071720897663
FINAL SINGLE POINT ENERGY      -876.071758212610
FINAL SINGLE POINT ENERGY      -876.071786667591
Dispersion correction           -0.010134705
FINAL SINGLE POINT ENERGY      -876.071823515703
Dispersion correction            ... done
Dispersion correction           -0.010133033
FINAL SINGLE POINT ENERGY      -876.071830997683
Dispersion correction            ... done
                    ***********************HURRAY********************

CARTESIAN COORDINATES (ANGSTROEM)
---------------------------------
  C      5.348412   -0.219093   -0.649691
  C      6.396964   -0.336961    0.438045
  C      7.281734    0.869323    0.530470
  I      9.183619    0.293193   -1.188098
  H      4.687720   -1.098732   -0.671299
  H      5.823386   -0.118161   -1.639116
  H      4.726945    0.671933   -0.467722
  H      7.016978   -1.236619    0.301076
  H      5.914208   -0.437198    1.422690
  H      7.079005    1.761643   -0.052887
  H      8.018759    0.957268    1.324846
  Cl     5.806791    2.141540    2.102024

 Multiplicity           Mult            ....    1
 Number of Electrons    NEL             ....   68
 Basis Dimension        Dim             ....  121

ORBITAL ENERGIES
----------------

  NO   OCC          E(Eh)            E(eV)
   0   2.0000    -101.560719     -2763.6077
   1   2.0000     -10.290035      -280.0061
   2   2.0000     -10.227661      -278.3088
   3   2.0000     -10.214110      -277.9401
   4   2.0000      -9.408185      -256.0097
   5   2.0000      -7.145731      -194.4452
   6   2.0000      -7.142748      -194.3640
   7   2.0000      -7.142666      -194.3618
   8   2.0000      -6.837174      -186.0490
   9   2.0000      -4.848952      -131.9467
  10   2.0000      -4.842602      -131.7739
  11   2.0000      -4.842524      -131.7718
  12   2.0000      -1.875642       -51.0388
  13   2.0000      -1.873912       -50.9917
  14   2.0000      -1.873861       -50.9904
  15   2.0000      -1.868512       -50.8448
  16   2.0000      -1.868505       -50.8446
  17   2.0000      -0.803743       -21.8710
  18   2.0000      -0.712814       -19.3967
  19   2.0000      -0.683662       -18.6034
  20   2.0000      -0.637205       -17.3392
  21   2.0000      -0.586427       -15.9575
  22   2.0000      -0.467163       -12.7121
  23   2.0000      -0.453861       -12.3502
  24   2.0000      -0.426071       -11.5940
  25   2.0000      -0.363939        -9.9033
  26   2.0000      -0.357369        -9.7245
  27   2.0000      -0.353711        -9.6250
  28   2.0000      -0.282246        -7.6803
  29   2.0000      -0.241592        -6.5741
  30   2.0000      -0.240532        -6.5452
  31   2.0000      -0.235880        -6.4186
  32   2.0000      -0.235502        -6.4083
  33   2.0000      -0.222455        -6.0533
  34   0.0000      -0.036667        -0.9978
  35   0.0000       0.092067         2.5053
  36   0.0000       0.123312         3.3555
  37   0.0000       0.129986         3.5371
  38   0.0000       0.148196         4.0326

MULLIKEN ATOMIC CHARGES
-----------------------
   0 C :   -0.093406
   1 C :   -0.053168
   2 C :   -0.073776
   3 I :   -0.586372
   4 H :    0.051996
   5 H :    0.040530
   6 H :    0.035253
   7 H :    0.063278
   8 H :    0.052055
   9 H :    0.118426
  10 H :    0.118224
  11 Cl:   -0.673041
Sum of atomic charges:   -1.0000000

LOEWDIN ATOMIC CHARGES
----------------------
   0 C :   -0.074966
   1 C :   -0.077272
   2 C :    0.033842
   3 I :   -0.486569
   4 H :    0.032326
   5 H :    0.024533
   6 H :    0.023344
   7 H :    0.034230
   8 H :    0.033583
   9 H :    0.024799
  10 H :    0.031847
  11 Cl:   -0.599697

  Mayer bond orders larger than 0.100000
B(  0-C ,  1-C ) :   1.0774 B(  0-C ,  4-H ) :   0.9712 B(  0-C ,  5-H ) :   0.9714
B(  0-C ,  6-H ) :   0.9661 B(  1-C ,  2-C ) :   1.0491 B(  1-C ,  7-H ) :   0.9372
B(  1-C ,  8-H ) :   0.9201 B(  2-C ,  3-I ) :   0.5465 B(  2-C ,  9-H ) :   0.9523
B(  2-C , 10-H ) :   0.9497 B(  2-C , 11-Cl) :   0.3171

Dispersion correction           -0.010130566
FINAL SINGLE POINT ENERGY      -876.071829507680

DIPOLE MOMENT
-------------
                                X             Y             Z
Electronic contribution:     95.90424     -16.43801     -61.54002
Nuclear contribution   :    -94.91274      14.79564      59.91962
                        -----------------------------------------
Total Dipole Moment    :      0.99150      -1.64237      -1.62040
                        -----------------------------------------
Magnitude (a.u.)       :      2.51121
Magnitude (Debye)      :      6.38298

Dispersion correction in the Hessian             ... done   (      0.6 sec)

VIBRATIONAL FREQUENCIES
-----------------------

Scaling factor for frequencies =  1.000000000  (already applied!)

   0:         0.00 cm**-1
   1:         0.00 cm**-1
   2:         0.00 cm**-1
   3:         0.00 cm**-1
   4:         0.00 cm**-1
   5:         0.00 cm**-1
   6:      -378.04 cm**-1 ***imaginary mode***
   7:        63.47 cm**-1
   8:       111.63 cm**-1
   9:       137.46 cm**-1
  10:       166.18 cm**-1
  11:       237.70 cm**-1
  12:       340.06 cm**-1
  13:       394.98 cm**-1
  14:       750.77 cm**-1
  15:       832.15 cm**-1
  16:       894.84 cm**-1
  17:       924.14 cm**-1
  18:       927.03 cm**-1
  19:      1050.32 cm**-1
  20:      1083.48 cm**-1
  21:      1156.85 cm**-1
  22:      1261.40 cm**-1
  23:      1336.53 cm**-1
  24:      1380.73 cm**-1
  25:      1413.02 cm**-1
  26:      1422.37 cm**-1
  27:      1448.96 cm**-1
  28:      1464.45 cm**-1
  29:      3045.83 cm**-1
  30:      3079.42 cm**-1
  31:      3124.67 cm**-1
  32:      3144.87 cm**-1
  33:      3152.63 cm**-1
  34:      3243.27 cm**-1
  35:      3374.57 cm**-1

IR SPECTRUM
-----------

 Mode    freq (cm**-1)   T**2         TX         TY         TZ
-------------------------------------------------------------------
   7:        63.47    2.782735  ( -1.615310  -0.276008  -0.311978)
   8:       111.63   10.636170  (  2.705697   1.500142   1.031964)
   9:       137.46   11.058017  (  0.597085  -0.867798  -3.154114)
  10:       166.18   15.201920  (  0.142215  -3.808627   0.822228)
  11:       237.70    1.677843  ( -0.103634  -1.257933  -0.291046)
  12:       340.06   38.715251  (  4.895231  -0.240467  -3.833293)
  13:       394.98    2.112697  ( -0.028743   0.364401  -1.406799)
  14:       750.77   57.505786  ( -4.863665   2.515485   5.246226)
  15:       832.15    7.332350  (  0.412018  -0.664295   2.592548)
  16:       894.84    4.701413  (  1.427629   1.028491  -1.267082)
  17:       924.14   38.336717  (  1.736259  -4.826375  -3.468174)
  18:       927.03  176.914956  ( 10.020096  -2.275306  -8.446041)
  19:      1050.32   81.715331  ( -6.985658   1.716766   5.474360)
  20:      1083.48    9.708227  ( -0.208655   2.911260   1.090529)
  21:      1156.85    0.389018  (  0.503909   0.143865   0.338226)
  22:      1261.40   20.477434  ( -2.986293   1.837139   2.860841)
  23:      1336.53    2.922585  (  0.459121   1.354919   0.935942)
  24:      1380.73   20.570782  ( -1.993693   2.657404  -3.087746)
  25:      1413.02   26.741563  ( -3.195844  -3.790177   1.470613)
  26:      1422.37    8.192631  ( -0.944907  -2.620398   0.658251)
  27:      1448.96   10.212960  ( -1.807540   2.090223   1.605218)
  28:      1464.45    7.364518  ( -1.142708  -1.949397   1.502861)
  29:      3045.83   32.468677  ( -4.127599   0.033407  -3.928166)
  30:      3079.42   13.242913  ( -1.479028   2.396072  -2.305260)
  31:      3124.67    5.383169  ( -1.481952   1.230323   1.293558)
  32:      3144.87   33.078692  ( -4.272375   1.192062   3.661215)
  33:      3152.63   26.423614  ( -1.138264  -4.984422   0.532455)
  34:      3243.27    9.669496  ( -2.573489   0.024545   1.745293)
  35:      3374.57    9.436128  ( -1.955341   1.410197  -1.903710)

--------------------------
THERMOCHEMISTRY AT 298.15K
--------------------------

Temperature         ... 298.15 K
Pressure            ... 1.00 atm
Total Mass          ... 205.44 AMU

Throughout the following assumptions are being made:
  (1) The electronic state is orbitally nondegenerate
  (2) There are no thermally accessible electronically excited states
  (3) Hindered rotations indicated by low frequency modes are not
      treated as such but are treated as vibrations and this may
      cause some error
  (4) All equations used are the standard statistical mechanics
      equations for an ideal gas
  (5) All vibrations are strictly harmonic

freq.      63.47  E(vib)   ...       0.51
freq.     111.63  E(vib)   ...       0.45
freq.     137.46  E(vib)   ...       0.42
freq.     166.18  E(vib)   ...       0.39
freq.     237.70  E(vib)   ...       0.32
freq.     340.06  E(vib)   ...       0.23
freq.     394.98  E(vib)   ...       0.20
freq.     750.77  E(vib)   ...       0.06
freq.     832.15  E(vib)   ...       0.04
freq.     894.84  E(vib)   ...       0.03
freq.     924.14  E(vib)   ...       0.03
freq.     927.03  E(vib)   ...       0.03
freq.    1050.32  E(vib)   ...       0.02
freq.    1083.48  E(vib)   ...       0.02
freq.    1156.85  E(vib)   ...       0.01
freq.    1261.40  E(vib)   ...       0.01
freq.    1336.53  E(vib)   ...       0.01
freq.    1380.73  E(vib)   ...       0.01
freq.    1413.02  E(vib)   ...       0.00
freq.    1422.37  E(vib)   ...       0.00
freq.    1448.96  E(vib)   ...       0.00
freq.    1464.45  E(vib)   ...       0.00
freq.    3045.83  E(vib)   ...       0.00
freq.    3079.42  E(vib)   ...       0.00
freq.    3124.67  E(vib)   ...       0.00
freq.    3144.87  E(vib)   ...       0.00
freq.    3152.63  E(vib)   ...       0.00
freq.    3243.27  E(vib)   ...       0.00
freq.    3374.57  E(vib)   ...       0.00

------------
INNER ENERGY
------------

The inner energy is: U= E(el) + E(ZPE) + E(vib) + E(rot) + E(trans)
    E(el)   - is the total energy from the electronic structure calculation
              = E(kin-el) + E(nuc-el) + E(el-el) + E(nuc-nuc)
    E(ZPE)  - the the zero temperature vibrational energy from the frequency calculation
    E(vib)  - the the finite temperature correction to E(ZPE) due to population
              of excited vibrational states
    E(rot)  - is the rotational thermal energy
    E(trans)- is the translational thermal energy

Summary of contributions to the inner energy U:
Electronic energy                ...   -876.07182951 Eh
Zero point energy                ...      0.09332236 Eh      58.56 kcal/mol
Thermal vibrational correction   ...      0.00444126 Eh       2.79 kcal/mol
Thermal rotational correction    ...      0.00141627 Eh       0.89 kcal/mol
Thermal translational correction ...      0.00141627 Eh       0.89 kcal/mol
-----------------------------------------------------------------------
Total thermal energy                   -875.97123335 Eh

Summary of corrections to the electronic energy:
(perhaps to be used in another calculation)
Total thermal correction                  0.00727380 Eh       4.56 kcal/mol
Non-thermal (ZPE) correction              0.09332236 Eh      58.56 kcal/mol
-----------------------------------------------------------------------
Total correction                          0.10059616 Eh      63.12 kcal/mol

--------
ENTHALPY
--------

The enthalpy is H = U + kB*T
                kB is Boltzmann's constant
Total free energy                 ...   -875.97123335 Eh
Thermal Enthalpy correction       ...      0.00094421 Eh       0.59 kcal/mol
-----------------------------------------------------------------------
Total Enthalpy                    ...   -875.97028914 Eh

Note: Only C1 symmetry has been detected, increase convergence thresholds
      if your molecule has a higher symmetry. Symmetry factor of 1.0 is
      used for the rotational entropy correction.

Note: Rotational entropy computed according to Herzberg
Infrared and Raman Spectra, Chapter V,1, Van Nostrand Reinhold, 1945
Point Group:  C1, Symmetry Number:   1
Rotational constants in cm-1:     0.115416     0.020414     0.017930

Vibrational entropy computed according to the QRRHO of S. Grimme
Chem.Eur.J. 2012 18 9955

-------
ENTROPY
-------

The entropy contributions are T*S = T*(S(el)+S(vib)+S(rot)+S(trans))
     S(el)   - electronic entropy
     S(vib)  - vibrational entropy
     S(rot)  - rotational entropy
     S(trans)- translational entropy
The entropies will be listed as mutliplied by the temperature to get
units of energy

Electronic entropy                ...      0.00000000 Eh      0.00 kcal/mol
Vibrational entropy               ...      0.00803827 Eh      5.04 kcal/mol
Rotational entropy                ...      0.01426573 Eh      8.95 kcal/mol
Translational entropy             ...      0.01989095 Eh     12.48 kcal/mol
-----------------------------------------------------------------------
Final entropy term                ...      0.04219494 Eh     26.48 kcal/mol

In case the symmetry of your molecule has not been determined correctly
or in case you have a reason to use a different symmetry number we print
out the resulting rotational entropy values for sn=1,12 :
 --------------------------------------------------------
|  sn= 1 | S(rot)=       0.01426573 Eh      8.95 kcal/mol|
|  sn= 2 | S(rot)=       0.01361127 Eh      8.54 kcal/mol|
|  sn= 3 | S(rot)=       0.01322844 Eh      8.30 kcal/mol|
|  sn= 4 | S(rot)=       0.01295681 Eh      8.13 kcal/mol|
|  sn= 5 | S(rot)=       0.01274613 Eh      8.00 kcal/mol|
|  sn= 6 | S(rot)=       0.01257398 Eh      7.89 kcal/mol|
|  sn= 7 | S(rot)=       0.01242843 Eh      7.80 kcal/mol|
|  sn= 8 | S(rot)=       0.01230236 Eh      7.72 kcal/mol|
|  sn= 9 | S(rot)=       0.01219115 Eh      7.65 kcal/mol|
|  sn=10 | S(rot)=       0.01209167 Eh      7.59 kcal/mol|
|  sn=11 | S(rot)=       0.01200168 Eh      7.53 kcal/mol|
|  sn=12 | S(rot)=       0.01191952 Eh      7.48 kcal/mol|
 --------------------------------------------------------

-------------------
GIBBS FREE ENERGY
-------------------

The Gibbs free energy is G = H - T*S

Total enthalpy                    ...   -875.97028914 Eh
Total entropy correction          ...     -0.04219494 Eh    -26.48 kcal/mol
-----------------------------------------------------------------------
Final Gibbs free energy         ...   -876.01248408 Eh

For completeness - the Gibbs free energy minus the electronic energy
G-E(el)                           ...      0.05934543 Eh     37.24 kcal/mol

                             ****ORCA TERMINATED NORMALLY****
TOTAL RUN TIME: 0 days 0 hours 16 minutes 24 seconds 398 msec
