                         Program Version 4.2.1 -  RELEASE  -
|  1> ! OptTS Freq PBE0 RIJCOSX D3BJ def2-SVP def2/J CPCM(Acetone)
|  2> %geom
|  3> modify_internal
|  4> { B 0 5 A } end
|  5> end
|  6> %geom
|  7> modify_internal
|  8> { B 0 1 A } end
|  9> end
| 10> %output
| 11> xyzfile=True
| 12> end
| 13> %scf
| 14> maxiter 250
| 15> end
| 16> %output
| 17> Print[P_Hirshfeld] = 1
| 18> end
| 19> % maxcore
| 20> 4000
| 21> %geom
| 22> Calc_Hess true
| 23> Recalc_Hess 30
| 24> Trust -0.1
| 25> MaxIter 150
| 26> end
| 27> %pal nprocs 4
| 28> end
| 29> *xyz -1 1
| 30> C    -0.74697  -0.14650   0.30573
| 31> Br    1.43903   0.24345  -0.59042
| 32> H    -1.00219  -0.83849  -0.48806
| 33> H    -1.00593   0.90138   0.21236
| 34> H    -0.34463  -0.52536   1.23865
| 35> Br   -2.92335  -0.48590   1.19973
| 36> *
| 37>
| 38>                          ****END OF INPUT****
 Total Charge           Charge          ....   -1
 Multiplicity           Mult            ....    1
 Number of Electrons    NEL             ....   80
Dispersion correction           -0.003801983
FINAL SINGLE POINT ENERGY     -5187.069988523617
Dispersion correction            ... done
Dispersion correction in the Hessian             ... done   (      0.3 sec)
Dispersion correction           -0.003761418
FINAL SINGLE POINT ENERGY     -5187.071315318410
Dispersion correction            ... done
Dispersion correction           -0.003720451
FINAL SINGLE POINT ENERGY     -5187.071865913061
Dispersion correction            ... done
Dispersion correction           -0.003712099
FINAL SINGLE POINT ENERGY     -5187.071892697090
Dispersion correction            ... done
                    ***********************HURRAY********************

CARTESIAN COORDINATES (ANGSTROEM)
---------------------------------
  C     -0.766057   -0.147381    0.306814
  Br     1.488863    0.247049   -0.596589
  H     -0.983820   -0.832867   -0.504684
  H     -0.985882    0.908397    0.194991
  H     -0.328687   -0.520486    1.226008
  Br    -3.008456   -0.506134    1.251450

 Multiplicity           Mult            ....    1
 Number of Electrons    NEL             ....   80
 Basis Dimension        Dim             ....   93

ORBITAL ENERGIES
----------------

  NO   OCC          E(Eh)            E(eV)
   0   2.0000    -483.109093    -13146.0668
   1   2.0000    -483.108409    -13146.0481
   2   2.0000     -62.544687     -1701.9275
   3   2.0000     -62.544076     -1701.9108
   4   2.0000     -56.333238     -1532.9053
   5   2.0000     -56.332628     -1532.8887
   6   2.0000     -56.332056     -1532.8732
   7   2.0000     -56.332052     -1532.8731
   8   2.0000     -56.331445     -1532.8565
   9   2.0000     -56.331426     -1532.8560
  10   2.0000     -10.285093      -279.8716
  11   2.0000      -8.688571      -236.4280
  12   2.0000      -8.688012      -236.4128
  13   2.0000      -6.498510      -176.8335
  14   2.0000      -6.497958      -176.8184
  15   2.0000      -6.492951      -176.6822
  16   2.0000      -6.492941      -176.6819
  17   2.0000      -6.492411      -176.6675
  18   2.0000      -6.492363      -176.6662
  19   2.0000      -2.584670       -70.3325
  20   2.0000      -2.584124       -70.3176
  21   2.0000      -2.583218       -70.2929
  22   2.0000      -2.583186       -70.2921
  23   2.0000      -2.582668       -70.2780
  24   2.0000      -2.582630       -70.2769
  25   2.0000      -2.578727       -70.1707
  26   2.0000      -2.578721       -70.1706
  27   2.0000      -2.578167       -70.1555
  28   2.0000      -2.578162       -70.1553
  29   2.0000      -0.735540       -20.0151
  30   2.0000      -0.698218       -18.9995
  31   2.0000      -0.654361       -17.8061
  32   2.0000      -0.440479       -11.9860
  33   2.0000      -0.439760       -11.9665
  34   2.0000      -0.317005        -8.6261
  35   2.0000      -0.249236        -6.7821
  36   2.0000      -0.249049        -6.7770
  37   2.0000      -0.242149        -6.5892
  38   2.0000      -0.241983        -6.5847
  39   2.0000      -0.227101        -6.1797
  40   0.0000      -0.016536        -0.4500
  41   0.0000       0.094264         2.5650
  42   0.0000       0.162879         4.4322
  43   0.0000       0.163158         4.4398
  44   0.0000       0.375650        10.2220

MULLIKEN ATOMIC CHARGES
-----------------------
   0 C :   -0.091919
   1 Br:   -0.652241
   2 H :    0.131469
   3 H :    0.132594
   4 H :    0.132323
   5 Br:   -0.652227
Sum of atomic charges:   -1.0000000

LOEWDIN ATOMIC CHARGES
----------------------
   0 C :   -0.017896
   1 Br:   -0.546533
   2 H :    0.037248
   3 H :    0.036564
   4 H :    0.036470
   5 Br:   -0.545853

  Mayer bond orders larger than 0.100000
B(  0-C ,  1-Br) :   0.4497 B(  0-C ,  2-H ) :   0.9695 B(  0-C ,  3-H ) :   0.9687
B(  0-C ,  4-H ) :   0.9688 B(  0-C ,  5-Br) :   0.4494 B(  1-Br,  5-Br) :   0.1195

Dispersion correction           -0.003711375
FINAL SINGLE POINT ENERGY     -5187.071894032114

DIPOLE MOMENT
-------------
                                X             Y             Z
Electronic contribution:      0.02078       0.06213       0.07564
Nuclear contribution   :     -0.02633      -0.07727      -0.09021
                        -----------------------------------------
Total Dipole Moment    :     -0.00555      -0.01514      -0.01456
                        -----------------------------------------
Magnitude (a.u.)       :      0.02173
Magnitude (Debye)      :      0.05524

Dispersion correction in the Hessian             ... done   (      0.3 sec)

VIBRATIONAL FREQUENCIES
-----------------------

Scaling factor for frequencies =  1.000000000  (already applied!)

   0:         0.00 cm**-1
   1:         0.00 cm**-1
   2:         0.00 cm**-1
   3:         0.00 cm**-1
   4:         0.00 cm**-1
   5:         0.00 cm**-1
   6:      -432.13 cm**-1 ***imaginary mode***
   7:       139.05 cm**-1
   8:       163.70 cm**-1
   9:       164.70 cm**-1
  10:       893.89 cm**-1
  11:       902.34 cm**-1
  12:       964.87 cm**-1
  13:      1340.83 cm**-1
  14:      1343.36 cm**-1
  15:      3180.74 cm**-1
  16:      3408.99 cm**-1
  17:      3411.67 cm**-1

IR SPECTRUM
-----------

 Mode    freq (cm**-1)   T**2         TX         TY         TZ
-------------------------------------------------------------------
   7:       139.05    0.001880  ( -0.011350  -0.024743  -0.033751)
   8:       163.70   10.423730  ( -0.370583  -2.586669  -1.896191)
   9:       164.70   10.229237  ( -1.267111   1.840869  -2.287983)
  10:       893.89    0.248884  ( -0.453623  -0.006926   0.207512)
  11:       902.34    0.016229  (  0.026331   0.037880  -0.118748)
  12:       964.87  209.566142  (-13.175812  -2.197929   5.579715)
  13:      1340.83   11.048244  (  0.523033   2.360913   2.280520)
  14:      1343.36   10.952826  ( -1.214779   2.280983  -2.067427)
  15:      3180.74    0.002752  (  0.014376  -0.040746   0.029743)
  16:      3408.99   19.403143  (  0.604208   3.347516   2.798609)
  17:      3411.67   20.748202  (  1.745101  -2.868656   3.077928)

--------------------------
THERMOCHEMISTRY AT 298.15K
--------------------------

Temperature         ... 298.15 K
Pressure            ... 1.00 atm
Total Mass          ... 174.83 AMU

Throughout the following assumptions are being made:
  (1) The electronic state is orbitally nondegenerate
  (2) There are no thermally accessible electronically excited states
  (3) Hindered rotations indicated by low frequency modes are not
      treated as such but are treated as vibrations and this may
      cause some error
  (4) All equations used are the standard statistical mechanics
      equations for an ideal gas
  (5) All vibrations are strictly harmonic

freq.     139.05  E(vib)   ...       0.42
freq.     163.70  E(vib)   ...       0.39
freq.     164.70  E(vib)   ...       0.39
freq.     893.89  E(vib)   ...       0.03
freq.     902.34  E(vib)   ...       0.03
freq.     964.87  E(vib)   ...       0.03
freq.    1340.83  E(vib)   ...       0.01
freq.    1343.36  E(vib)   ...       0.01
freq.    3180.74  E(vib)   ...       0.00
freq.    3408.99  E(vib)   ...       0.00
freq.    3411.67  E(vib)   ...       0.00

------------
INNER ENERGY
------------

The inner energy is: U= E(el) + E(ZPE) + E(vib) + E(rot) + E(trans)
    E(el)   - is the total energy from the electronic structure calculation
              = E(kin-el) + E(nuc-el) + E(el-el) + E(nuc-nuc)
    E(ZPE)  - the the zero temperature vibrational energy from the frequency calculation
    E(vib)  - the the finite temperature correction to E(ZPE) due to population
              of excited vibrational states
    E(rot)  - is the rotational thermal energy
    E(trans)- is the translational thermal energy

Summary of contributions to the inner energy U:
Electronic energy                ...  -5187.07189403 Eh
Zero point energy                ...      0.03625511 Eh      22.75 kcal/mol
Thermal vibrational correction   ...      0.00207046 Eh       1.30 kcal/mol
Thermal rotational correction    ...      0.00141627 Eh       0.89 kcal/mol
Thermal translational correction ...      0.00141627 Eh       0.89 kcal/mol
-----------------------------------------------------------------------
Total thermal energy                  -5187.03073593 Eh

Summary of corrections to the electronic energy:
(perhaps to be used in another calculation)
Total thermal correction                  0.00490300 Eh       3.08 kcal/mol
Non-thermal (ZPE) correction              0.03625511 Eh      22.75 kcal/mol
-----------------------------------------------------------------------
Total correction                          0.04115811 Eh      25.83 kcal/mol

--------
ENTHALPY
--------

The enthalpy is H = U + kB*T
                kB is Boltzmann's constant
Total free energy                 ...  -5187.03073593 Eh
Thermal Enthalpy correction       ...      0.00094421 Eh       0.59 kcal/mol
-----------------------------------------------------------------------
Total Enthalpy                    ...  -5187.02979172 Eh

Note: Only C1 symmetry has been detected, increase convergence thresholds
      if your molecule has a higher symmetry. Symmetry factor of 1.0 is
      used for the rotational entropy correction.

Note: Rotational entropy computed according to Herzberg
Infrared and Raman Spectra, Chapter V,1, Van Nostrand Reinhold, 1945
Point Group:  C1, Symmetry Number:   1
Rotational constants in cm-1:     4.727390     0.017399     0.017399

Vibrational entropy computed according to the QRRHO of S. Grimme
Chem.Eur.J. 2012 18 9955

-------
ENTROPY
-------

The entropy contributions are T*S = T*(S(el)+S(vib)+S(rot)+S(trans))
     S(el)   - electronic entropy
     S(vib)  - vibrational entropy
     S(rot)  - rotational entropy
     S(trans)- translational entropy
The entropies will be listed as mutliplied by the temperature to get
units of energy

Electronic entropy                ...      0.00000000 Eh      0.00 kcal/mol
Vibrational entropy               ...      0.00387676 Eh      2.43 kcal/mol
Rotational entropy                ...      0.01260270 Eh      7.91 kcal/mol
Translational entropy             ...      0.01966247 Eh     12.34 kcal/mol
-----------------------------------------------------------------------
Final entropy term                ...      0.03614193 Eh     22.68 kcal/mol

In case the symmetry of your molecule has not been determined correctly
or in case you have a reason to use a different symmetry number we print
out the resulting rotational entropy values for sn=1,12 :
 --------------------------------------------------------
|  sn= 1 | S(rot)=       0.01260270 Eh      7.91 kcal/mol|
|  sn= 2 | S(rot)=       0.01194824 Eh      7.50 kcal/mol|
|  sn= 3 | S(rot)=       0.01156541 Eh      7.26 kcal/mol|
|  sn= 4 | S(rot)=       0.01129379 Eh      7.09 kcal/mol|
|  sn= 5 | S(rot)=       0.01108310 Eh      6.95 kcal/mol|
|  sn= 6 | S(rot)=       0.01091096 Eh      6.85 kcal/mol|
|  sn= 7 | S(rot)=       0.01076541 Eh      6.76 kcal/mol|
|  sn= 8 | S(rot)=       0.01063933 Eh      6.68 kcal/mol|
|  sn= 9 | S(rot)=       0.01052812 Eh      6.61 kcal/mol|
|  sn=10 | S(rot)=       0.01042864 Eh      6.54 kcal/mol|
|  sn=11 | S(rot)=       0.01033865 Eh      6.49 kcal/mol|
|  sn=12 | S(rot)=       0.01025650 Eh      6.44 kcal/mol|
 --------------------------------------------------------

-------------------
GIBBS FREE ENERGY
-------------------

The Gibbs free energy is G = H - T*S

Total enthalpy                    ...  -5187.02979172 Eh
Total entropy correction          ...     -0.03614193 Eh    -22.68 kcal/mol
-----------------------------------------------------------------------
Final Gibbs free energy         ...  -5187.06593365 Eh

For completeness - the Gibbs free energy minus the electronic energy
G-E(el)                           ...      0.00596038 Eh      3.74 kcal/mol

                             ****ORCA TERMINATED NORMALLY****
TOTAL RUN TIME: 0 days 0 hours 1 minutes 20 seconds 773 msec
