                         Program Version 4.2.1 -  RELEASE  -
|  1> ! SP CCSD(T) def2-TZVP CPCM(Acetone)
|  2> %cpcm
|  3> surfacetype vdw_gaussian
|  4> end
|  5> %geom MaxIter 100 end
|  6> %output
|  7> xyzfile=True
|  8> end
|  9> %scf
| 10> maxiter 250
| 11> end
| 12> %output
| 13> Print[P_Hirshfeld] = 1
| 14> end
| 15> % maxcore
| 16> 4000
| 17> %pal nprocs 4
| 18> end
| 19> *xyz -1 1
| 20>   C   -2.26774289928729      0.18972469940041     -1.01328336019624
| 21>   C   -1.15796925793514     -0.82175025125613     -0.81500087849409
| 22>   C   -0.31158475666657     -0.54305596521497      0.38850820853671
| 23>   Br  1.41733141933223      1.01213445736393     -0.64729155352072
| 24>   H   -2.88472886114750     -0.05993251630438     -1.88943408907512
| 25>   H   -2.92596370234237      0.21750854406587     -0.13024391856469
| 26>   H   -1.84250701314230      1.19482241923204     -1.16373760985243
| 27>   H   -1.57042999467781     -1.83754286844225     -0.71023961065440
| 28>   H   -0.49321325711364     -0.85435392379298     -1.69269238991200
| 29>   H   0.52309331440998     -1.19002800773739      0.64232403970498
| 30>   H   -0.50366448852552      0.30817113569971      1.03359081337151
| 31>   Br  -1.63566050290406     -1.81023772301386      2.15217034865649
| 32> *
| 33>
| 34>                          ****END OF INPUT****

CARTESIAN COORDINATES (ANGSTROEM)
---------------------------------
  C     -2.267743    0.189725   -1.013283
  C     -1.157969   -0.821750   -0.815001
  C     -0.311585   -0.543056    0.388508
  Br     1.417331    1.012134   -0.647292
  H     -2.884729   -0.059933   -1.889434
  H     -2.925964    0.217509   -0.130244
  H     -1.842507    1.194822   -1.163738
  H     -1.570430   -1.837543   -0.710240
  H     -0.493213   -0.854354   -1.692692
  H      0.523093   -1.190028    0.642324
  H     -0.503664    0.308171    1.033591
  Br    -1.635661   -1.810238    2.152170

 Total Charge           Charge          ....   -1
 Multiplicity           Mult            ....    1
 Number of Electrons    NEL             ....   96
 Basis Dimension        Dim             ....  231

ORBITAL ENERGIES
----------------

  NO   OCC          E(Eh)            E(eV)
   0   2.0000    -489.931976    -13331.7268
   1   2.0000    -489.931707    -13331.7195
   2   2.0000     -65.075141     -1770.7846
   3   2.0000     -65.074875     -1770.7774
   4   2.0000     -58.429664     -1589.9520
   5   2.0000     -58.429409     -1589.9451
   6   2.0000     -58.429406     -1589.9450
   7   2.0000     -58.429396     -1589.9447
   8   2.0000     -58.429145     -1589.9379
   9   2.0000     -58.429142     -1589.9378
  10   2.0000     -11.326536      -308.2107
  11   2.0000     -11.231190      -305.6162
  12   2.0000     -11.210495      -305.0531
  13   2.0000      -9.748541      -265.2713
  14   2.0000      -9.748278      -265.2641
  15   2.0000      -7.357342      -200.2034
  16   2.0000      -7.357069      -200.1960
  17   2.0000      -7.356019      -200.1674
  18   2.0000      -7.356006      -200.1671
  19   2.0000      -7.355762      -200.1605
  20   2.0000      -7.355749      -200.1601
  21   2.0000      -3.098284       -84.3086
  22   2.0000      -3.098006       -84.3010
  23   2.0000      -3.097723       -84.2933
  24   2.0000      -3.097684       -84.2923
  25   2.0000      -3.097452       -84.2859
  26   2.0000      -3.097415       -84.2849
  27   2.0000      -3.096088       -84.2488
  28   2.0000      -3.096085       -84.2488
  29   2.0000      -3.095840       -84.2421
  30   2.0000      -3.095837       -84.2420
  31   2.0000      -1.077693       -29.3255
  32   2.0000      -0.948353       -25.8060
  33   2.0000      -0.914944       -24.8969
  34   2.0000      -0.889551       -24.2059
  35   2.0000      -0.806092       -21.9349
  36   2.0000      -0.647117       -17.6089
  37   2.0000      -0.612835       -16.6761
  38   2.0000      -0.590770       -16.0757
  39   2.0000      -0.510706       -13.8970
  40   2.0000      -0.497131       -13.5276
  41   2.0000      -0.496754       -13.5174
  42   2.0000      -0.394106       -10.7242
  43   2.0000      -0.361763        -9.8441
  44   2.0000      -0.360111        -9.7991
  45   2.0000      -0.356167        -9.6918
  46   2.0000      -0.355672        -9.6783
  47   2.0000      -0.333034        -9.0623
  48   0.0000       0.100366         2.7311
  49   0.0000       0.158919         4.3244
  50   0.0000       0.192787         5.2460
  51   0.0000       0.196463         5.3460
  52   0.0000       0.221740         6.0339

E(0)                                       ...  -5262.697341102
E(0)                                       ...  -5262.697341102
E(CORR)                                    ...     -1.119654474
E(TOT)                                     ...  -5263.816995576
E(CCSD(T))                                 ...  -5263.858926452

MULLIKEN ATOMIC CHARGES
-----------------------
   0 C :   -0.439536
   1 C :   -0.140181
   2 C :   -0.068903
   3 Br:   -0.734641
   4 H :    0.145304
   5 H :    0.134319
   6 H :    0.133921
   7 H :    0.145049
   8 H :    0.145136
   9 H :    0.209010
  10 H :    0.202823
  11 Br:   -0.732301
Sum of atomic charges:   -1.0000000

LOEWDIN ATOMIC CHARGES
----------------------
   0 C :   -0.323167
   1 C :   -0.347987
   2 C :   -0.241502
   3 Br:   -0.513658
   4 H :    0.126409
   5 H :    0.123861
   6 H :    0.123668
   7 H :    0.148807
   8 H :    0.148865
   9 H :    0.133322
  10 H :    0.132358
  11 Br:   -0.510974

  Mayer bond orders larger than 0.100000
B(  0-C ,  1-C ) :   0.9160 B(  0-C ,  4-H ) :   0.9256 B(  0-C ,  5-H ) :   0.9205
B(  0-C ,  6-H ) :   0.9204 B(  1-C ,  2-C ) :   0.9173 B(  1-C ,  7-H ) :   0.8924
B(  1-C ,  8-H ) :   0.8925 B(  2-C ,  3-Br) :   0.3223 B(  2-C ,  9-H ) :   0.8980
B(  2-C , 10-H ) :   0.8983 B(  2-C , 11-Br) :   0.3263

FINAL SINGLE POINT ENERGY     -5263.858926451659

DIPOLE MOMENT
-------------
                                X             Y             Z
Electronic contribution:     10.56467      -0.79740      10.75342
Nuclear contribution   :    -11.33657       0.58644     -11.78442
                        -----------------------------------------
Total Dipole Moment    :     -0.77190      -0.21096      -1.03099
                        -----------------------------------------
Magnitude (a.u.)       :      1.30510
Magnitude (Debye)      :      3.31729

Rotational constants in cm-1:     0.103391     0.016484     0.014607
Rotational constants in MHz :  3099.569587   494.172464   437.906631

                             ****ORCA TERMINATED NORMALLY****
TOTAL RUN TIME: 0 days 0 hours 18 minutes 13 seconds 536 msec
