                         Program Version 4.2.1 -  RELEASE  -
|  1> ! SP CCSD(T) def2-TZVP CPCM(DMF)
|  2> %cpcm
|  3> surfacetype vdw_gaussian
|  4> end
|  5> %geom MaxIter 100 end
|  6> %output
|  7> xyzfile=True
|  8> end
|  9> %scf
| 10> maxiter 250
| 11> end
| 12> %output
| 13> Print[P_Hirshfeld] = 1
| 14> end
| 15> % maxcore
| 16> 4000
| 17> %pal nprocs 4
| 18> end
| 19> *xyz -1 1
| 20>   C   6.81222980128819      1.33797103979457     -0.12427735168144
| 21>   C   6.11693149211307      0.04705866502166     -0.23260168937706
| 22>   C   4.70434972844474     -0.05069061668144      0.16260726427210
| 23>   C   6.84303723639687     -1.14442016335899     -0.69035444058194
| 24>   Br  6.85040984369610     -0.55331758930025      2.81350736472596
| 25>   H   6.64934435701077      1.79406725453974     -1.11952371766758
| 26>   H   6.37367246005320      1.98858449859061      0.63977554496927
| 27>   H   7.89293067652437      1.21395379839078      0.02029709477929
| 28>   H   4.16140526357370      0.23647480642757     -0.75736468117905
| 29>   H   4.45038327650866      0.65739454807094      0.95878266157644
| 30>   H   4.41713348723567     -1.07613669139516      0.42550599084412
| 31>   H   7.24205780746050     -1.57239703536616      0.25096142608206
| 32>   H   7.68494741911992     -0.89155246141425     -1.34384877620232
| 33>   H   6.17810011973032     -1.88049309702330     -1.15510523220987
| 34>   Cl  5.44769376128292      0.46625355020661     -3.01946930440257
| 35> *
| 36>
| 37>                          ****END OF INPUT****

CARTESIAN COORDINATES (ANGSTROEM)
---------------------------------
  C      6.812230    1.337971   -0.124277
  C      6.116931    0.047059   -0.232602
  C      4.704350   -0.050691    0.162607
  C      6.843037   -1.144420   -0.690354
  Br     6.850410   -0.553318    2.813507
  H      6.649344    1.794067   -1.119524
  H      6.373672    1.988584    0.639776
  H      7.892931    1.213954    0.020297
  H      4.161405    0.236475   -0.757365
  H      4.450383    0.657395    0.958783
  H      4.417133   -1.076137    0.425506
  H      7.242058   -1.572397    0.250961
  H      7.684947   -0.891552   -1.343849
  H      6.178100   -1.880493   -1.155105
  Cl     5.447694    0.466254   -3.019469

 Total Charge           Charge          ....   -1
 Multiplicity           Mult            ....    1
 Number of Electrons    NEL             ....   86
 Basis Dimension        Dim             ....  263

ORBITAL ENERGIES
----------------

  NO   OCC          E(Eh)            E(eV)
   0   2.0000    -489.917105    -13331.3222
   1   2.0000    -104.713626     -2849.4026
   2   2.0000     -65.060374     -1770.3828
   3   2.0000     -58.414768     -1589.5467
   4   2.0000     -58.414765     -1589.5466
   5   2.0000     -58.414739     -1589.5458
   6   2.0000     -11.367878      -309.3357
   7   2.0000     -11.236898      -305.7715
   8   2.0000     -11.236872      -305.7708
   9   2.0000     -11.236221      -305.7531
  10   2.0000     -10.442213      -284.1471
  11   2.0000      -9.733752      -264.8689
  12   2.0000      -7.908707      -215.2069
  13   2.0000      -7.908642      -215.2051
  14   2.0000      -7.908638      -215.2050
  15   2.0000      -7.341791      -199.7803
  16   2.0000      -7.341763      -199.7795
  17   2.0000      -7.341751      -199.7792
  18   2.0000      -3.082509       -83.8793
  19   2.0000      -3.082505       -83.8792
  20   2.0000      -3.082442       -83.8775
  21   2.0000      -3.082418       -83.8769
  22   2.0000      -3.082410       -83.8766
  23   2.0000      -1.142392       -31.0861
  24   2.0000      -0.976513       -26.5723
  25   2.0000      -0.975811       -26.5532
  26   2.0000      -0.960264       -26.1301
  27   2.0000      -0.896906       -24.4060
  28   2.0000      -0.749283       -20.3890
  29   2.0000      -0.640614       -17.4320
  30   2.0000      -0.639936       -17.4135
  31   2.0000      -0.626654       -17.0521
  32   2.0000      -0.560405       -15.2494
  33   2.0000      -0.558870       -15.2076
  34   2.0000      -0.538657       -14.6576
  35   2.0000      -0.527982       -14.3671
  36   2.0000      -0.523852       -14.2547
  37   2.0000      -0.374978       -10.2037
  38   2.0000      -0.374448       -10.1892
  39   2.0000      -0.373872       -10.1736
  40   2.0000      -0.349610        -9.5134
  41   2.0000      -0.349169        -9.5014
  42   2.0000      -0.348218        -9.4755
  43   0.0000       0.059260         1.6126
  44   0.0000       0.149307         4.0628
  45   0.0000       0.193234         5.2582
  46   0.0000       0.198484         5.4010
  47   0.0000       0.213580         5.8118

E(0)                                       ...  -3188.851113080
E(0)                                       ...  -3188.851113080
E(CORR)                                    ...     -1.209736884
E(TOT)                                     ...  -3190.060849964
E(CCSD(T))                                 ...  -3190.105832006

MULLIKEN ATOMIC CHARGES
-----------------------
   0 C :   -0.388953
   1 C :    0.280126
   2 C :   -0.384477
   3 C :   -0.366253
   4 Br:   -0.931563
   5 H :    0.205570
   6 H :    0.174956
   7 H :    0.182365
   8 H :    0.204376
   9 H :    0.176091
  10 H :    0.179007
  11 H :    0.205978
  12 H :    0.173304
  13 H :    0.174058
  14 Cl:   -0.884586
Sum of atomic charges:   -1.0000000

LOEWDIN ATOMIC CHARGES
----------------------
   0 C :   -0.255564
   1 C :   -0.050936
   2 C :   -0.258605
   3 C :   -0.261864
   4 Br:   -0.821321
   5 H :    0.170165
   6 H :    0.147912
   7 H :    0.153622
   8 H :    0.169391
   9 H :    0.148254
  10 H :    0.151572
  11 H :    0.169011
  12 H :    0.148583
  13 H :    0.148701
  14 Cl:   -0.758920

  Mayer bond orders larger than 0.100000
B(  0-C ,  1-C ) :   0.9664 B(  0-C ,  5-H ) :   0.8349 B(  0-C ,  6-H ) :   0.9049
B(  0-C ,  7-H ) :   0.9010 B(  1-C ,  2-C ) :   0.9650 B(  1-C ,  3-C ) :   0.9596
B(  1-C ,  4-Br) :   0.1297 B(  1-C , 14-Cl) :   0.1417 B(  2-C ,  8-H ) :   0.8353
B(  2-C ,  9-H ) :   0.9018 B(  2-C , 10-H ) :   0.9050 B(  3-C , 11-H ) :   0.8283
B(  3-C , 12-H ) :   0.9069 B(  3-C , 13-H ) :   0.9059

FINAL SINGLE POINT ENERGY     -3190.105832006014

DIPOLE MOMENT
-------------
                                X             Y             Z
Electronic contribution:      5.67540      -4.62713      23.53792
Nuclear contribution   :     -5.47145       4.63701     -22.69282
                        -----------------------------------------
Total Dipole Moment    :      0.20395       0.00988       0.84510
                        -----------------------------------------
Magnitude (a.u.)       :      0.86942
Magnitude (Debye)      :      2.20988

Rotational constants in cm-1:     0.148861     0.016268     0.016263
Rotational constants in MHz :  4462.730117   487.689919   487.553677

                             ****ORCA TERMINATED NORMALLY****
TOTAL RUN TIME: 0 days 0 hours 22 minutes 54 seconds 370 msec
