                         Program Version 4.2.1 -  RELEASE  -
|  1> ! SP CCSD(T) def2-TZVP CPCM(Acetone)
|  2> %cpcm
|  3> surfacetype vdw_gaussian
|  4> end
|  5> %geom MaxIter 100 end
|  6> %output
|  7> xyzfile=True
|  8> end
|  9> %scf
| 10> maxiter 250
| 11> end
| 12> %output
| 13> Print[P_Hirshfeld] = 1
| 14> end
| 15> % maxcore
| 16> 4000
| 17> %pal nprocs 4
| 18> end
| 19> *xyz -1 1
| 20>   C   2.40218405945700      0.13970003862626     -0.95175086569481
| 21>   C   1.04332256268367      0.78625375382655     -0.69153154716247
| 22>   C   0.62328860435299      1.75253496408090     -1.79438049150668
| 23>   C   -0.02749178941723     -0.24357569998349     -0.42405421806288
| 24>   I   -0.87586247724587      0.22963674741568      1.99727259870678
| 25>   H   2.36541712892978     -0.44881679618877     -1.87987314254318
| 26>   H   3.18148000048322      0.91223710612403     -1.03958695624231
| 27>   H   2.68347881182116     -0.53484544164957     -0.12772054641563
| 28>   H   1.14300257691397      1.37706279287803      0.23293913473251
| 29>   H   -0.30866405937502      2.27517683027278     -1.52510090400631
| 30>   H   1.39972578711275      2.51425731634933     -1.96347334679448
| 31>   H   0.45589280280893      1.19444835030029     -2.72714535795334
| 32>   H   -1.04223369934325     -0.09147309986544     -0.77896348229576
| 33>   H   0.23797445993780     -1.25133093912963     -0.11777277394324
| 34>   Cl  0.01187523088009     -1.44692592305697     -2.68152810081820
| 35> *
| 36>
| 37>                          ****END OF INPUT****

CARTESIAN COORDINATES (ANGSTROEM)
---------------------------------
  C      2.402184    0.139700   -0.951751
  C      1.043323    0.786254   -0.691532
  C      0.623289    1.752535   -1.794380
  C     -0.027492   -0.243576   -0.424054
  I     -0.875862    0.229637    1.997273
  H      2.365417   -0.448817   -1.879873
  H      3.181480    0.912237   -1.039587
  H      2.683479   -0.534845   -0.127721
  H      1.143003    1.377063    0.232939
  H     -0.308664    2.275177   -1.525101
  H      1.399726    2.514257   -1.963473
  H      0.455893    1.194448   -2.727145
  H     -1.042234   -0.091473   -0.778963
  H      0.237974   -1.251331   -0.117773
  Cl     0.011875   -1.446926   -2.681528

 Total Charge           Charge          ....   -1
 Multiplicity           Mult            ....    1
 Number of Electrons    NEL             ....   76
 Basis Dimension        Dim             ....  265

ORBITAL ENERGIES
----------------

  NO   OCC          E(Eh)            E(eV)
   0   2.0000    -104.715944     -2849.4657
   1   2.0000     -11.318443      -307.9905
   2   2.0000     -11.235629      -305.7370
   3   2.0000     -11.205851      -304.9267
   4   2.0000     -11.205549      -304.9185
   5   2.0000     -10.444700      -284.2147
   6   2.0000      -7.911191      -215.2744
   7   2.0000      -7.910976      -215.2686
   8   2.0000      -7.910968      -215.2684
   9   2.0000      -7.671961      -208.7647
  10   2.0000      -5.521872      -150.2578
  11   2.0000      -5.519324      -150.1884
  12   2.0000      -5.519304      -150.1879
  13   2.0000      -2.216283       -60.3081
  14   2.0000      -2.215176       -60.2780
  15   2.0000      -2.215155       -60.2774
  16   2.0000      -2.212288       -60.1994
  17   2.0000      -2.212281       -60.1992
  18   2.0000      -1.094625       -29.7863
  19   2.0000      -0.969025       -26.3685
  20   2.0000      -0.928480       -25.2652
  21   2.0000      -0.923064       -25.1179
  22   2.0000      -0.816814       -22.2266
  23   2.0000      -0.771075       -20.9820
  24   2.0000      -0.635369       -17.2893
  25   2.0000      -0.625573       -17.0227
  26   2.0000      -0.596155       -16.2222
  27   2.0000      -0.535067       -14.5599
  28   2.0000      -0.520830       -14.1725
  29   2.0000      -0.498870       -13.5749
  30   2.0000      -0.476241       -12.9592
  31   2.0000      -0.471844       -12.8395
  32   2.0000      -0.394834       -10.7440
  33   2.0000      -0.373833       -10.1725
  34   2.0000      -0.372861       -10.1461
  35   2.0000      -0.331987        -9.0338
  36   2.0000      -0.331144        -9.0109
  37   2.0000      -0.323440        -8.8012
  38   0.0000       0.088279         2.4022
  39   0.0000       0.155943         4.2434
  40   0.0000       0.192970         5.2510
  41   0.0000       0.193216         5.2577
  42   0.0000       0.213412         5.8072

E(0)                                       ...   -913.070666801
E(0)                                       ...   -913.070666801
E(CORR)                                    ...     -1.415714729
E(TOT)                                     ...   -914.486381530
E(CCSD(T))                                 ...   -914.536433985

MULLIKEN ATOMIC CHARGES
-----------------------
   0 C :   -0.435147
   1 C :    0.027626
   2 C :   -0.439889
   3 C :   -0.120887
   4 I :   -0.597656
   5 H :    0.132072
   6 H :    0.137993
   7 H :    0.138157
   8 H :    0.135826
   9 H :    0.138144
  10 H :    0.138354
  11 H :    0.133710
  12 H :    0.206212
  13 H :    0.206027
  14 Cl:   -0.800541
Sum of atomic charges:   -1.0000000

LOEWDIN ATOMIC CHARGES
----------------------
   0 C :   -0.302783
   1 C :   -0.359124
   2 C :   -0.302615
   3 C :   -0.236222
   4 I :   -0.357243
   5 H :    0.116806
   6 H :    0.125938
   7 H :    0.127024
   8 H :    0.162414
   9 H :    0.126962
  10 H :    0.126181
  11 H :    0.117414
  12 H :    0.130812
  13 H :    0.131236
  14 Cl:   -0.606799

  Mayer bond orders larger than 0.100000
B(  0-C ,  1-C ) :   0.8876 B(  0-C ,  5-H ) :   0.9148 B(  0-C ,  6-H ) :   0.9231
B(  0-C ,  7-H ) :   0.9227 B(  1-C ,  2-C ) :   0.8904 B(  1-C ,  3-C ) :   0.8942
B(  1-C ,  8-H ) :   0.9032 B(  2-C ,  9-H ) :   0.9216 B(  2-C , 10-H ) :   0.9236
B(  2-C , 11-H ) :   0.9151 B(  3-C ,  4-I ) :   0.5352 B(  3-C , 12-H ) :   0.8968
B(  3-C , 13-H ) :   0.8971 B(  3-C , 14-Cl) :   0.1355

FINAL SINGLE POINT ENERGY      -914.536433985228

DIPOLE MOMENT
-------------
                                X             Y             Z
Electronic contribution:    -56.84157       7.23979     122.49554
Nuclear contribution   :     57.51487      -5.23748    -120.19947
                        -----------------------------------------
Total Dipole Moment    :      0.67330       2.00231       2.29608
                        -----------------------------------------
Magnitude (a.u.)       :      3.12002
Magnitude (Debye)      :      7.93046

Rotational constants in cm-1:     0.074557     0.017482     0.015659
Rotational constants in MHz :  2235.163016   524.084415   469.446148

                             ****ORCA TERMINATED NORMALLY****
TOTAL RUN TIME: 0 days 0 hours 22 minutes 44 seconds 100 msec
