                         Program Version 4.2.1 -  RELEASE  -
|  1> ! SP CCSD(T) def2-TZVP CPCM(Acetone)
|  2> %cpcm
|  3> surfacetype vdw_gaussian
|  4> end
|  5> %geom MaxIter 100 end
|  6> %output
|  7> xyzfile=True
|  8> end
|  9> %scf
| 10> maxiter 250
| 11> end
| 12> %output
| 13> Print[P_Hirshfeld] = 1
| 14> end
| 15> % maxcore
| 16> 4000
| 17> %pal nprocs 4
| 18> end
| 19> *xyz -1 1
| 20>   C   1.16704263071346     -1.33555225931114     -0.31414682403397
| 21>   C   -0.05035926503594     -0.71841690270413      0.28707755861638
| 22>   C   -1.40363686837720     -1.13577088518015     -0.18003588088372
| 23>   Br  0.07830395274697      1.57287837287845     -1.04045381255940
| 24>   H   2.08610895012145     -0.91776785856680      0.11463436287333
| 25>   H   1.16803468654604     -1.16789068295095     -1.40190129017961
| 26>   H   1.15233347415489     -2.42268331428485     -0.14306636771774
| 27>   H   0.04901990705754      0.03408998812241      1.05885461865168
| 28>   H   -2.19881775038190     -0.59725834754451      0.34874504475004
| 29>   H   -1.53111794415046     -2.21677964749908     -0.01870710265323
| 30>   H   -1.49522214621210     -0.94483517871681     -1.25996421194052
| 31>   Br  -0.03473962718274     -2.10479328424243      2.54342390507677
| 32> *
| 33>
| 34>                          ****END OF INPUT****

CARTESIAN COORDINATES (ANGSTROEM)
---------------------------------
  C      1.167043   -1.335552   -0.314147
  C     -0.050359   -0.718417    0.287078
  C     -1.403637   -1.135771   -0.180036
  Br     0.078304    1.572878   -1.040454
  H      2.086109   -0.917768    0.114634
  H      1.168035   -1.167891   -1.401901
  H      1.152333   -2.422683   -0.143066
  H      0.049020    0.034090    1.058855
  H     -2.198818   -0.597258    0.348745
  H     -1.531118   -2.216780   -0.018707
  H     -1.495222   -0.944835   -1.259964
  Br    -0.034740   -2.104793    2.543424

 Total Charge           Charge          ....   -1
 Multiplicity           Mult            ....    1
 Number of Electrons    NEL             ....   96
 Basis Dimension        Dim             ....  231

ORBITAL ENERGIES
----------------

  NO   OCC          E(Eh)            E(eV)
   0   2.0000    -489.925990    -13331.5640
   1   2.0000    -489.925843    -13331.5599
   2   2.0000     -65.069252     -1770.6244
   3   2.0000     -65.069103     -1770.6203
   4   2.0000     -58.423713     -1589.7901
   5   2.0000     -58.423563     -1589.7860
   6   2.0000     -58.423551     -1589.7856
   7   2.0000     -58.423545     -1589.7855
   8   2.0000     -58.423404     -1589.7816
   9   2.0000     -58.423397     -1589.7815
  10   2.0000     -11.342576      -308.6472
  11   2.0000     -11.228962      -305.5556
  12   2.0000     -11.228822      -305.5518
  13   2.0000      -9.742689      -265.1121
  14   2.0000      -9.742538      -265.1079
  15   2.0000      -7.351245      -200.0376
  16   2.0000      -7.351087      -200.0332
  17   2.0000      -7.350344      -200.0130
  18   2.0000      -7.350301      -200.0119
  19   2.0000      -7.350197      -200.0090
  20   2.0000      -7.350154      -200.0079
  21   2.0000      -3.092085       -84.1399
  22   2.0000      -3.091923       -84.1355
  23   2.0000      -3.091721       -84.1300
  24   2.0000      -3.091658       -84.1283
  25   2.0000      -3.091565       -84.1258
  26   2.0000      -3.091501       -84.1240
  27   2.0000      -3.090594       -84.0993
  28   2.0000      -3.090591       -84.0993
  29   2.0000      -3.090454       -84.0955
  30   2.0000      -3.090451       -84.0954
  31   2.0000      -1.090321       -29.6691
  32   2.0000      -0.955637       -26.0042
  33   2.0000      -0.909464       -24.7478
  34   2.0000      -0.904666       -24.6172
  35   2.0000      -0.798661       -21.7327
  36   2.0000      -0.648291       -17.6409
  37   2.0000      -0.596194       -16.2233
  38   2.0000      -0.584514       -15.9054
  39   2.0000      -0.547053       -14.8861
  40   2.0000      -0.521774       -14.1982
  41   2.0000      -0.517613       -14.0850
  42   2.0000      -0.375570       -10.2198
  43   2.0000      -0.357401        -9.7254
  44   2.0000      -0.356079        -9.6894
  45   2.0000      -0.353400        -9.6165
  46   2.0000      -0.352370        -9.5885
  47   2.0000      -0.335750        -9.1362
  48   0.0000       0.083100         2.2613
  49   0.0000       0.159281         4.3342
  50   0.0000       0.190708         5.1894
  51   0.0000       0.196172         5.3381
  52   0.0000       0.234483         6.3806

E(0)                                       ...  -5262.701139995
E(0)                                       ...  -5262.701139995
E(CORR)                                    ...     -1.116164476
E(TOT)                                     ...  -5263.817304471
E(CCSD(T))                                 ...  -5263.858641744

MULLIKEN ATOMIC CHARGES
-----------------------
   0 C :   -0.363425
   1 C :    0.105966
   2 C :   -0.363871
   3 Br:   -0.782613
   4 H :    0.155705
   5 H :    0.167158
   6 H :    0.167908
   7 H :    0.201963
   8 H :    0.155820
   9 H :    0.168137
  10 H :    0.167876
  11 Br:   -0.780623
Sum of atomic charges:   -1.0000000

LOEWDIN ATOMIC CHARGES
----------------------
   0 C :   -0.326498
   1 C :   -0.192103
   2 C :   -0.324569
   3 Br:   -0.569391
   4 H :    0.136253
   5 H :    0.141886
   6 H :    0.141858
   7 H :    0.138420
   8 H :    0.136302
   9 H :    0.142414
  10 H :    0.142387
  11 Br:   -0.566959

  Mayer bond orders larger than 0.100000
B(  0-C ,  1-C ) :   0.9412 B(  0-C ,  4-H ) :   0.9199 B(  0-C ,  5-H ) :   0.8907
B(  0-C ,  6-H ) :   0.8895 B(  1-C ,  2-C ) :   0.9416 B(  1-C ,  3-Br) :   0.2794
B(  1-C ,  7-H ) :   0.8855 B(  1-C , 11-Br) :   0.2821 B(  2-C ,  8-H ) :   0.9198
B(  2-C ,  9-H ) :   0.8901 B(  2-C , 10-H ) :   0.8900

FINAL SINGLE POINT ENERGY     -5263.858641743654

DIPOLE MOMENT
-------------
                                X             Y             Z
Electronic contribution:      1.01470       7.01345       7.23830
Nuclear contribution   :     -1.17045      -8.05703      -8.29652
                        -----------------------------------------
Total Dipole Moment    :     -0.15575      -1.04359      -1.05821
                        -----------------------------------------
Magnitude (a.u.)       :      1.49437
Magnitude (Debye)      :      3.79839

Rotational constants in cm-1:     0.147622     0.015138     0.015120
Rotational constants in MHz :  4425.582183   453.834568   453.283906

                             ****ORCA TERMINATED NORMALLY****
TOTAL RUN TIME: 0 days 0 hours 14 minutes 28 seconds 965 msec
