                         Program Version 4.2.1 -  RELEASE  -
|  1> ! SP CCSD(T) def2-TZVP CPCM(Acetone)
|  2> %cpcm
|  3> surfacetype vdw_gaussian
|  4> end
|  5> %geom MaxIter 100 end
|  6> %output
|  7> xyzfile=True
|  8> end
|  9> %scf
| 10> maxiter 250
| 11> end
| 12> %output
| 13> Print[P_Hirshfeld] = 1
| 14> end
| 15> % maxcore
| 16> 4000
| 17> %pal nprocs 4
| 18> end
| 19> *xyz -1 1
| 20>   C   -1.59442309503199     -0.31332593034545      0.82195144663359
| 21>   C   -0.40663119724044     -0.67453962061190     -0.00585459895627
| 22>   Br  0.73444102072571      1.59589082613142     -0.13303279032482
| 23>   H   -2.44199806303269     -0.96265130662724      0.56413052656214
| 24>   H   -1.38273886110932     -0.41357339511928      1.89528580436868
| 25>   H   -1.89458703780302      0.72313451209063      0.61238967156097
| 26>   H   -0.46467181510912     -0.63405284047746     -1.09035141600765
| 27>   H   0.53551635873297     -0.98189527402128      0.43327649685549
| 28>   Br  -0.80038731013208     -3.17947697101943     -0.22080514069215
| 29> *
| 30>
| 31>                          ****END OF INPUT****

CARTESIAN COORDINATES (ANGSTROEM)
---------------------------------
  C     -1.594423   -0.313326    0.821951
  C     -0.406631   -0.674540   -0.005855
  Br     0.734441    1.595891   -0.133033
  H     -2.441998   -0.962651    0.564131
  H     -1.382739   -0.413573    1.895286
  H     -1.894587    0.723135    0.612390
  H     -0.464672   -0.634053   -1.090351
  H      0.535516   -0.981895    0.433276
  Br    -0.800387   -3.179477   -0.220805

 Total Charge           Charge          ....   -1
 Multiplicity           Mult            ....    1
 Number of Electrons    NEL             ....   88
 Basis Dimension        Dim             ....  188

ORBITAL ENERGIES
----------------

  NO   OCC          E(Eh)            E(eV)
   0   2.0000    -489.932080    -13331.7297
   1   2.0000    -489.932067    -13331.7293
   2   2.0000     -65.075286     -1770.7886
   3   2.0000     -65.075277     -1770.7883
   4   2.0000     -58.429804     -1589.9558
   5   2.0000     -58.429793     -1589.9555
   6   2.0000     -58.429552     -1589.9489
   7   2.0000     -58.429543     -1589.9487
   8   2.0000     -58.429542     -1589.9487
   9   2.0000     -58.429533     -1589.9484
  10   2.0000     -11.329646      -308.2953
  11   2.0000     -11.227368      -305.5122
  12   2.0000      -9.748736      -265.2766
  13   2.0000      -9.748730      -265.2764
  14   2.0000      -7.357531      -200.2086
  15   2.0000      -7.357524      -200.2084
  16   2.0000      -7.356222      -200.1730
  17   2.0000      -7.356219      -200.1729
  18   2.0000      -7.356187      -200.1720
  19   2.0000      -7.356186      -200.1720
  20   2.0000      -3.098474       -84.3138
  21   2.0000      -3.098462       -84.3134
  22   2.0000      -3.097930       -84.2990
  23   2.0000      -3.097919       -84.2987
  24   2.0000      -3.097864       -84.2972
  25   2.0000      -3.097855       -84.2969
  26   2.0000      -3.096281       -84.2541
  27   2.0000      -3.096280       -84.2541
  28   2.0000      -3.096279       -84.2540
  29   2.0000      -3.096278       -84.2540
  30   2.0000      -1.051621       -28.6160
  31   2.0000      -0.915116       -24.9016
  32   2.0000      -0.912747       -24.8371
  33   2.0000      -0.838402       -22.8141
  34   2.0000      -0.653659       -17.7870
  35   2.0000      -0.574190       -15.6245
  36   2.0000      -0.572946       -15.5907
  37   2.0000      -0.522806       -14.2263
  38   2.0000      -0.395139       -10.7523
  39   2.0000      -0.362911        -9.8753
  40   2.0000      -0.360484        -9.8093
  41   2.0000      -0.356145        -9.6912
  42   2.0000      -0.355877        -9.6839
  43   2.0000      -0.333366        -9.0713
  44   0.0000       0.099704         2.7131
  45   0.0000       0.164240         4.4692
  46   0.0000       0.190762         5.1909
  47   0.0000       0.216566         5.8931
  48   0.0000       0.241276         6.5655

E(0)                                       ...  -5223.649252330
E(0)                                       ...  -5223.649252330
E(CORR)                                    ...     -0.938495292
E(TOT)                                     ...  -5224.587747623
E(CCSD(T))                                 ...  -5224.622157327

MULLIKEN ATOMIC CHARGES
-----------------------
   0 C :   -0.366141
   1 C :   -0.041201
   2 Br:   -0.736612
   3 H :    0.163527
   4 H :    0.151214
   5 H :    0.163749
   6 H :    0.197646
   7 H :    0.204026
   8 Br:   -0.736209
Sum of atomic charges:   -1.0000000

LOEWDIN ATOMIC CHARGES
----------------------
   0 C :   -0.360528
   1 C :   -0.266829
   2 Br:   -0.519332
   3 H :    0.134277
   4 H :    0.134746
   5 H :    0.134576
   6 H :    0.132808
   7 H :    0.128896
   8 Br:   -0.518613

  Mayer bond orders larger than 0.100000
B(  0-C ,  1-C ) :   0.9325 B(  0-C ,  3-H ) :   0.8973 B(  0-C ,  4-H ) :   0.9186
B(  0-C ,  5-H ) :   0.8965 B(  1-C ,  2-Br) :   0.3297 B(  1-C ,  6-H ) :   0.9007
B(  1-C ,  7-H ) :   0.8965 B(  1-C ,  8-Br) :   0.3304

FINAL SINGLE POINT ENERGY     -5224.622157327155

DIPOLE MOMENT
-------------
                                X             Y             Z
Electronic contribution:      6.42651      -1.97941      -3.94710
Nuclear contribution   :     -7.25886       2.23646       4.37241
                        -----------------------------------------
Total Dipole Moment    :     -0.83235       0.25705       0.42532
                        -----------------------------------------
Magnitude (a.u.)       :      0.96942
Magnitude (Debye)      :      2.46406

Rotational constants in cm-1:     0.284770     0.016684     0.015861
Rotational constants in MHz :  8537.189146   500.162439   475.506741

                             ****ORCA TERMINATED NORMALLY****
TOTAL RUN TIME: 0 days 0 hours 6 minutes 9 seconds 914 msec
