                         Program Version 4.2.1 -  RELEASE  -
|  1> ! SP CCSD(T) def2-TZVP CPCM(Acetone)
|  2> %cpcm
|  3> surfacetype vdw_gaussian
|  4> end
|  5> %geom MaxIter 100 end
|  6> %output
|  7> xyzfile=True
|  8> end
|  9> %scf
| 10> maxiter 250
| 11> end
| 12> %output
| 13> Print[P_Hirshfeld] = 1
| 14> end
| 15> % maxcore
| 16> 4000
| 17> %pal nprocs 4
| 18> end
| 19> *xyz -1 1
| 20>   C   5.34841174482189     -0.21909250856250     -0.64969092834627
| 21>   C   6.39696411885791     -0.33696072435926      0.43804451318519
| 22>   C   7.28173437970596      0.86932284552241      0.53047022809800
| 23>   I   9.18361893576078      0.29319311191740     -1.18809789017185
| 24>   H   4.68771959240242     -1.09873246250738     -0.67129870615145
| 25>   H   5.82338582895592     -0.11816095514854     -1.63911584051037
| 26>   H   4.72694532064188      0.67193290420493     -0.46772199901849
| 27>   H   7.01697805362923     -1.23661866698422      0.30107574516286
| 28>   H   5.91420844226879     -0.43719781561668      1.42268977561440
| 29>   H   7.07900512063275      1.76164251995885     -0.05288659350129
| 30>   H   8.01875947044271      0.95726812696601      1.32484615868553
| 31>   Cl  5.80679141187945      2.14153956460897      2.10202425695372
| 32> *
| 33>
| 34>                          ****END OF INPUT****

CARTESIAN COORDINATES (ANGSTROEM)
---------------------------------
  C      5.348412   -0.219093   -0.649691
  C      6.396964   -0.336961    0.438045
  C      7.281734    0.869323    0.530470
  I      9.183619    0.293193   -1.188098
  H      4.687720   -1.098732   -0.671299
  H      5.823386   -0.118161   -1.639116
  H      4.726945    0.671933   -0.467722
  H      7.016978   -1.236619    0.301076
  H      5.914208   -0.437198    1.422690
  H      7.079005    1.761643   -0.052887
  H      8.018759    0.957268    1.324846
  Cl     5.806791    2.141540    2.102024

 Total Charge           Charge          ....   -1
 Multiplicity           Mult            ....    1
 Number of Electrons    NEL             ....   68
 Basis Dimension        Dim             ....  222

ORBITAL ENERGIES
----------------

  NO   OCC          E(Eh)            E(eV)
   0   2.0000    -104.719672     -2849.5671
   1   2.0000     -11.321251      -308.0669
   2   2.0000     -11.229106      -305.5595
   3   2.0000     -11.209428      -305.0240
   4   2.0000     -10.448309      -284.3129
   5   2.0000      -7.914815      -215.3731
   6   2.0000      -7.914572      -215.3665
   7   2.0000      -7.914557      -215.3660
   8   2.0000      -7.669930      -208.7094
   9   2.0000      -5.519753      -150.2001
  10   2.0000      -5.517357      -150.1349
  11   2.0000      -5.517331      -150.1342
  12   2.0000      -2.214143       -60.2499
  13   2.0000      -2.213103       -60.2216
  14   2.0000      -2.213072       -60.2207
  15   2.0000      -2.210380       -60.1475
  16   2.0000      -2.210377       -60.1474
  17   2.0000      -1.075569       -29.2677
  18   2.0000      -0.970842       -26.4180
  19   2.0000      -0.924703       -25.1624
  20   2.0000      -0.827015       -22.5042
  21   2.0000      -0.795623       -21.6500
  22   2.0000      -0.643253       -17.5038
  23   2.0000      -0.611718       -16.6457
  24   2.0000      -0.587397       -15.9839
  25   2.0000      -0.508619       -13.8402
  26   2.0000      -0.496262       -13.5040
  27   2.0000      -0.494682       -13.4610
  28   2.0000      -0.395833       -10.7712
  29   2.0000      -0.377877       -10.2826
  30   2.0000      -0.376105       -10.2343
  31   2.0000      -0.330756        -9.0003
  32   2.0000      -0.330409        -8.9909
  33   2.0000      -0.324314        -8.8250
  34   0.0000       0.093365         2.5406
  35   0.0000       0.160354         4.3634
  36   0.0000       0.192136         5.2283
  37   0.0000       0.195372         5.3163
  38   0.0000       0.219780         5.9805

E(0)                                       ...   -874.028194676
E(0)                                       ...   -874.028194676
E(CORR)                                    ...     -1.232593492
E(TOT)                                     ...   -875.260788168
E(CCSD(T))                                 ...   -875.302712151

MULLIKEN ATOMIC CHARGES
-----------------------
   0 C :   -0.438519
   1 C :   -0.136764
   2 C :   -0.101875
   3 I :   -0.623739
   4 H :    0.143826
   5 H :    0.133724
   6 H :    0.131128
   7 H :    0.148904
   8 H :    0.133758
   9 H :    0.201943
  10 H :    0.207502
  11 Cl:   -0.799888
Sum of atomic charges:   -1.0000000

LOEWDIN ATOMIC CHARGES
----------------------
   0 C :   -0.325104
   1 C :   -0.353773
   2 C :   -0.263746
   3 I :   -0.381125
   4 H :    0.125557
   5 H :    0.122400
   6 H :    0.123567
   7 H :    0.144511
   8 H :    0.147695
   9 H :    0.129978
  10 H :    0.131639
  11 Cl:   -0.601599

  Mayer bond orders larger than 0.100000
B(  0-C ,  1-C ) :   0.9177 B(  0-C ,  4-H ) :   0.9257 B(  0-C ,  5-H ) :   0.9194
B(  0-C ,  6-H ) :   0.9212 B(  1-C ,  2-C ) :   0.9083 B(  1-C ,  7-H ) :   0.8994
B(  1-C ,  8-H ) :   0.8854 B(  2-C ,  3-I ) :   0.5003 B(  2-C ,  9-H ) :   0.8971
B(  2-C , 10-H ) :   0.8967 B(  2-C , 11-Cl) :   0.1826

FINAL SINGLE POINT ENERGY      -875.302712150737

DIPOLE MOMENT
-------------
                                X             Y             Z
Electronic contribution:     96.07837     -16.77975     -61.85467
Nuclear contribution   :    -94.91274      14.79564      59.91962
                        -----------------------------------------
Total Dipole Moment    :      1.16563      -1.98411      -1.93506
                        -----------------------------------------
Magnitude (a.u.)       :      3.00663
Magnitude (Debye)      :      7.64224

Rotational constants in cm-1:     0.115416     0.020414     0.017930
Rotational constants in MHz :  3460.084850   611.993973   537.520860

                             ****ORCA TERMINATED NORMALLY****
TOTAL RUN TIME: 0 days 0 hours 9 minutes 7 seconds 136 msec
