                         Program Version 4.2.1 -  RELEASE  -
|  1> ! SP CCSD(T) def2-TZVP CPCM(DMF)
|  2> %cpcm
|  3> surfacetype vdw_gaussian
|  4> end
|  5> %geom MaxIter 100 end
|  6> %output
|  7> xyzfile=True
|  8> end
|  9> %scf
| 10> maxiter 250
| 11> end
| 12> %output
| 13> Print[P_Hirshfeld] = 1
| 14> end
| 15> % maxcore
| 16> 4000
| 17> %pal nprocs 4
| 18> end
| 19> *xyz -1 1
| 20>   C   2.39313467284535      0.14301474271211     -0.92837599712908
| 21>   C   1.02721244601063      0.78214728704296     -0.69690064159782
| 22>   C   0.62894137474766      1.74777442256816     -1.80841331790860
| 23>   C   -0.04056727131446     -0.25007481090863     -0.43558019891530
| 24>   Br  -0.71929953810098      0.18280825282968      1.88140019811345
| 25>   H   2.37309472500273     -0.46036256621343     -1.84760865145141
| 26>   H   3.16930754532136      0.91800761947305     -1.02064060707031
| 27>   H   2.66806904264063     -0.51617849265065     -0.08979218984911
| 28>   H   1.09373605095679      1.37015241089403      0.23259094477829
| 29>   H   -0.32004269410629      2.25455318909292     -1.57033631076479
| 30>   H   1.39838892959761      2.52315134847195     -1.94442311697649
| 31>   H   0.50262720210295      1.19553870427297     -2.75066885002346
| 32>   H   -1.07063986313188     -0.06917040482521     -0.72504224406800
| 33>   H   0.21973720849106     -1.25413693539171     -0.11856313964409
| 34>   Cl  -0.03030983106318     -1.40288476736820     -2.65031587749325
| 35> *
| 36>
| 37>                          ****END OF INPUT****

CARTESIAN COORDINATES (ANGSTROEM)
---------------------------------
  C      2.393135    0.143015   -0.928376
  C      1.027212    0.782147   -0.696901
  C      0.628941    1.747774   -1.808413
  C     -0.040567   -0.250075   -0.435580
  Br    -0.719300    0.182808    1.881400
  H      2.373095   -0.460363   -1.847609
  H      3.169308    0.918008   -1.020641
  H      2.668069   -0.516178   -0.089792
  H      1.093736    1.370152    0.232591
  H     -0.320043    2.254553   -1.570336
  H      1.398389    2.523151   -1.944423
  H      0.502627    1.195539   -2.750669
  H     -1.070640   -0.069170   -0.725042
  H      0.219737   -1.254137   -0.118563
  Cl    -0.030310   -1.402885   -2.650316

 Total Charge           Charge          ....   -1
 Multiplicity           Mult            ....    1
 Number of Electrons    NEL             ....   86
 Basis Dimension        Dim             ....  263

ORBITAL ENERGIES
----------------

  NO   OCC          E(Eh)            E(eV)
   0   2.0000    -489.942429    -13332.0113
   1   2.0000    -104.722977     -2849.6571
   2   2.0000     -65.085555     -1771.0680
   3   2.0000     -58.440129     -1590.2367
   4   2.0000     -58.439781     -1590.2273
   5   2.0000     -58.439780     -1590.2273
   6   2.0000     -11.323335      -308.1236
   7   2.0000     -11.236772      -305.7681
   8   2.0000     -11.207971      -304.9844
   9   2.0000     -11.207541      -304.9727
  10   2.0000     -10.451801      -284.4080
  11   2.0000      -9.758957      -265.5547
  12   2.0000      -7.918298      -215.4678
  13   2.0000      -7.918057      -215.4613
  14   2.0000      -7.918045      -215.4610
  15   2.0000      -7.368001      -200.4935
  16   2.0000      -7.366256      -200.4460
  17   2.0000      -7.366251      -200.4459
  18   2.0000      -3.109057       -84.6017
  19   2.0000      -3.108291       -84.5809
  20   2.0000      -3.108263       -84.5801
  21   2.0000      -3.106111       -84.5216
  22   2.0000      -3.106109       -84.5215
  23   2.0000      -1.098312       -29.8866
  24   2.0000      -0.977568       -26.6010
  25   2.0000      -0.950353       -25.8604
  26   2.0000      -0.925093       -25.1731
  27   2.0000      -0.893397       -24.3106
  28   2.0000      -0.773848       -21.0575
  29   2.0000      -0.639574       -17.4037
  30   2.0000      -0.628916       -17.1137
  31   2.0000      -0.598657       -16.2903
  32   2.0000      -0.537231       -14.6188
  33   2.0000      -0.523409       -14.2427
  34   2.0000      -0.501815       -13.6551
  35   2.0000      -0.480436       -13.0733
  36   2.0000      -0.473982       -12.8977
  37   2.0000      -0.409539       -11.1441
  38   2.0000      -0.380825       -10.3628
  39   2.0000      -0.379349       -10.3226
  40   2.0000      -0.366057        -9.9609
  41   2.0000      -0.364674        -9.9233
  42   2.0000      -0.346241        -9.4217
  43   0.0000       0.105805         2.8791
  44   0.0000       0.153425         4.1749
  45   0.0000       0.192585         5.2405
  46   0.0000       0.197944         5.3863
  47   0.0000       0.210643         5.7319

E(0)                                       ...  -3188.828224310
E(0)                                       ...  -3188.828224310
E(CORR)                                    ...     -1.227377754
E(TOT)                                     ...  -3190.055602064
E(CCSD(T))                                 ...  -3190.104519573

MULLIKEN ATOMIC CHARGES
-----------------------
   0 C :   -0.438135
   1 C :    0.029576
   2 C :   -0.439228
   3 C :   -0.055610
   4 Br:   -0.663418
   5 H :    0.130717
   6 H :    0.140289
   7 H :    0.138901
   8 H :    0.127438
   9 H :    0.138771
  10 H :    0.140069
  11 H :    0.131950
  12 H :    0.196836
  13 H :    0.197248
  14 Cl:   -0.775402
Sum of atomic charges:   -1.0000000

LOEWDIN ATOMIC CHARGES
----------------------
   0 C :   -0.302318
   1 C :   -0.359233
   2 C :   -0.303400
   3 C :   -0.219959
   4 Br:   -0.421857
   5 H :    0.117360
   6 H :    0.126684
   7 H :    0.127370
   8 H :    0.163737
   9 H :    0.127276
  10 H :    0.126693
  11 H :    0.116422
  12 H :    0.131554
  13 H :    0.130899
  14 Cl:   -0.561231

  Mayer bond orders larger than 0.100000
B(  0-C ,  1-C ) :   0.8907 B(  0-C ,  5-H ) :   0.9157 B(  0-C ,  6-H ) :   0.9236
B(  0-C ,  7-H ) :   0.9223 B(  1-C ,  2-C ) :   0.8898 B(  1-C ,  3-C ) :   0.9054
B(  1-C ,  8-H ) :   0.8956 B(  2-C ,  9-H ) :   0.9221 B(  2-C , 10-H ) :   0.9234
B(  2-C , 11-H ) :   0.9151 B(  3-C ,  4-Br) :   0.4210 B(  3-C , 12-H ) :   0.9010
B(  3-C , 13-H ) :   0.9008 B(  3-C , 14-Cl) :   0.1915

FINAL SINGLE POINT ENERGY     -3190.104519573375

DIPOLE MOMENT
-------------
                                X             Y             Z
Electronic contribution:    -15.06731      -3.99687      24.28240
Nuclear contribution   :     16.12972       5.77833     -23.13833
                        -----------------------------------------
Total Dipole Moment    :      1.06240       1.78146       1.14407
                        -----------------------------------------
Magnitude (a.u.)       :      2.36880
Magnitude (Debye)      :      6.02100

Rotational constants in cm-1:     0.076014     0.022957     0.020013
Rotational constants in MHz :  2278.846284   688.244751   599.966645

                             ****ORCA TERMINATED NORMALLY****
TOTAL RUN TIME: 0 days 0 hours 19 minutes 34 seconds 490 msec
