                         Program Version 4.2.1 -  RELEASE  -
|  1> ! SP CCSD(T) def2-TZVP CPCM(Acetone)
|  2> %cpcm
|  3> surfacetype vdw_gaussian
|  4> end
|  5> %geom MaxIter 100 end
|  6> %output
|  7> xyzfile=True
|  8> end
|  9> %scf
| 10> maxiter 250
| 11> end
| 12> %output
| 13> Print[P_Hirshfeld] = 1
| 14> end
| 15> % maxcore
| 16> 4000
| 17> %pal nprocs 4
| 18> end
| 19> *xyz -1 1
| 20>   C   5.34134631307806      0.18644400615842      0.04825471759190
| 21>   C   6.52551304900939     -0.69603968408734      0.05299714754719
| 22>   I   8.57887317609193      1.37093164224667     -0.40733210611775
| 23>   H   4.47985357346980     -0.45581223669898      0.29800728896563
| 24>   H   5.41217051053611      0.97047007850307      0.81338135301271
| 25>   H   5.16384300546846      0.63655347125898     -0.93720917633289
| 26>   H   6.86843183974407     -1.20111568519510     -0.84976732181352
| 27>   H   7.02265203219233     -0.96361821545572      0.98580249399973
| 28>   Cl  5.13643363200033     -3.04963055160524      0.41863772845979
| 29> *
| 30>
| 31>                          ****END OF INPUT****

CARTESIAN COORDINATES (ANGSTROEM)
---------------------------------
  C      5.341346    0.186444    0.048255
  C      6.525513   -0.696040    0.052997
  I      8.578873    1.370932   -0.407332
  H      4.479854   -0.455812    0.298007
  H      5.412171    0.970470    0.813381
  H      5.163843    0.636553   -0.937209
  H      6.868432   -1.201116   -0.849767
  H      7.022652   -0.963618    0.985802
  Cl     5.136434   -3.049631    0.418638

 Total Charge           Charge          ....   -1
 Multiplicity           Mult            ....    1
 Number of Electrons    NEL             ....   60
 Basis Dimension        Dim             ....  179

ORBITAL ENERGIES
----------------

  NO   OCC          E(Eh)            E(eV)
   0   2.0000    -104.721311     -2849.6117
   1   2.0000     -11.356692      -309.0313
   2   2.0000     -11.236866      -305.7707
   3   2.0000     -10.449075      -284.3338
   4   2.0000      -7.915595      -215.3943
   5   2.0000      -7.915464      -215.3907
   6   2.0000      -7.915450      -215.3904
   7   2.0000      -7.665075      -208.5773
   8   2.0000      -5.514377      -150.0538
   9   2.0000      -5.512758      -150.0098
  10   2.0000      -5.512719      -150.0087
  11   2.0000      -2.208539       -60.0974
  12   2.0000      -2.207883       -60.0796
  13   2.0000      -2.207846       -60.0785
  14   2.0000      -2.206012       -60.0286
  15   2.0000      -2.206011       -60.0286
  16   2.0000      -1.063686       -28.9444
  17   2.0000      -0.961931       -26.1755
  18   2.0000      -0.860671       -23.4200
  19   2.0000      -0.810152       -22.0454
  20   2.0000      -0.668158       -18.1815
  21   2.0000      -0.591818       -16.1042
  22   2.0000      -0.578756       -15.7488
  23   2.0000      -0.532999       -14.5036
  24   2.0000      -0.383314       -10.4305
  25   2.0000      -0.378166       -10.2904
  26   2.0000      -0.376476       -10.2444
  27   2.0000      -0.329618        -8.9694
  28   2.0000      -0.328085        -8.9276
  29   2.0000      -0.327552        -8.9132
  30   0.0000       0.057230         1.5573
  31   0.0000       0.163622         4.4524
  32   0.0000       0.184973         5.0334
  33   0.0000       0.205706         5.5976
  34   0.0000       0.245133         6.6704

E(0)                                       ...   -834.984002636
E(0)                                       ...   -834.984002636
E(CORR)                                    ...     -1.039676254
E(TOT)                                     ...   -836.023678890
E(CCSD(T))                                 ...   -836.056386459

MULLIKEN ATOMIC CHARGES
-----------------------
   0 C :   -0.366004
   1 C :   -0.045705
   2 I :   -0.710760
   3 H :    0.187577
   4 H :    0.170028
   5 H :    0.166019
   6 H :    0.217227
   7 H :    0.216600
   8 Cl:   -0.834982
Sum of atomic charges:   -1.0000000

LOEWDIN ATOMIC CHARGES
----------------------
   0 C :   -0.344204
   1 C :   -0.096884
   2 I :   -0.563064
   3 H :    0.152285
   4 H :    0.141444
   5 H :    0.140230
   6 H :    0.140966
   7 H :    0.142257
   8 Cl:   -0.713029

  Mayer bond orders larger than 0.100000
B(  0-C ,  1-C ) :   0.9673 B(  0-C ,  3-H ) :   0.8578 B(  0-C ,  4-H ) :   0.9030
B(  0-C ,  5-H ) :   0.9088 B(  1-C ,  2-I ) :   0.4094 B(  1-C ,  6-H ) :   0.8874
B(  1-C ,  7-H ) :   0.8886 B(  1-C ,  8-Cl) :   0.1692

FINAL SINGLE POINT ENERGY      -836.056386459174

DIPOLE MOMENT
-------------
                                X             Y             Z
Electronic contribution:     81.66082      78.07325     -16.89154
Nuclear contribution   :    -80.64428     -75.09364      16.51218
                        -----------------------------------------
Total Dipole Moment    :      1.01655       2.97961      -0.37936
                        -----------------------------------------
Magnitude (a.u.)       :      3.17102
Magnitude (Debye)      :      8.06008

Rotational constants in cm-1:     0.325465     0.017401     0.016628
Rotational constants in MHz :  9757.205395   521.669399   498.497835

                             ****ORCA TERMINATED NORMALLY****
TOTAL RUN TIME: 0 days 0 hours 3 minutes 47 seconds 821 msec
