                         Program Version 4.2.1 -  RELEASE  -
|  1> ! SP CCSD(T) def2-TZVP CPCM(Acetone)
|  2> %cpcm
|  3> surfacetype vdw_gaussian
|  4> end
|  5> %geom MaxIter 100 end
|  6> %output
|  7> xyzfile=True
|  8> end
|  9> %scf
| 10> maxiter 250
| 11> end
| 12> %output
| 13> Print[P_Hirshfeld] = 1
| 14> end
| 15> % maxcore
| 16> 4000
| 17> %pal nprocs 4
| 18> end
| 19> *xyz -1 1
| 20>   C   -0.76605728402645     -0.14738056245390      0.30681356232920
| 21>   Br  1.48886279657177      0.24704930205668     -0.59658881285281
| 22>   H   -0.98382019207674     -0.83286659712118     -0.50468411765517
| 23>   H   -0.98588184414704      0.90839725076008      0.19499055048275
| 24>   H   -0.32868718111582     -0.52048584034235      1.22600840398368
| 25>   Br  -3.00845629520572     -0.50613355289933      1.25145041371235
| 26> *
| 27>
| 28>                          ****END OF INPUT****

CARTESIAN COORDINATES (ANGSTROEM)
---------------------------------
  C     -0.766057   -0.147381    0.306814
  Br     1.488863    0.247049   -0.596589
  H     -0.983820   -0.832867   -0.504684
  H     -0.985882    0.908397    0.194991
  H     -0.328687   -0.520486    1.226008
  Br    -3.008456   -0.506134    1.251450

 Total Charge           Charge          ....   -1
 Multiplicity           Mult            ....    1
 Number of Electrons    NEL             ....   80
 Basis Dimension        Dim             ....  145

ORBITAL ENERGIES
----------------

  NO   OCC          E(Eh)            E(eV)
   0   2.0000    -489.937359    -13331.8733
   1   2.0000    -489.937197    -13331.8689
   2   2.0000     -65.080506     -1770.9306
   3   2.0000     -65.080347     -1770.9263
   4   2.0000     -58.435078     -1590.0993
   5   2.0000     -58.434918     -1590.0949
   6   2.0000     -58.434737     -1590.0900
   7   2.0000     -58.434737     -1590.0900
   8   2.0000     -58.434579     -1590.0857
   9   2.0000     -58.434579     -1590.0857
  10   2.0000     -11.316178      -307.9289
  11   2.0000      -9.753964      -265.4189
  12   2.0000      -9.753806      -265.4146
  13   2.0000      -7.362994      -200.3572
  14   2.0000      -7.362830      -200.3528
  15   2.0000      -7.361286      -200.3108
  16   2.0000      -7.361286      -200.3108
  17   2.0000      -7.361134      -200.3066
  18   2.0000      -7.361132      -200.3066
  19   2.0000      -3.104031       -84.4650
  20   2.0000      -3.103864       -84.4604
  21   2.0000      -3.103278       -84.4445
  22   2.0000      -3.103278       -84.4445
  23   2.0000      -3.103117       -84.4401
  24   2.0000      -3.103115       -84.4401
  25   2.0000      -3.101181       -84.3874
  26   2.0000      -3.101181       -84.3874
  27   2.0000      -3.101033       -84.3834
  28   2.0000      -3.101033       -84.3834
  29   2.0000      -0.985189       -26.8084
  30   2.0000      -0.919650       -25.0249
  31   2.0000      -0.877154       -23.8686
  32   2.0000      -0.619129       -16.8474
  33   2.0000      -0.618145       -16.8206
  34   2.0000      -0.422458       -11.4957
  35   2.0000      -0.366476        -9.9723
  36   2.0000      -0.366408        -9.9705
  37   2.0000      -0.358279        -9.7493
  38   2.0000      -0.358172        -9.7464
  39   2.0000      -0.330094        -8.9823
  40   0.0000       0.117364         3.1936
  41   0.0000       0.167762         4.5650
  42   0.0000       0.232453         6.3254
  43   0.0000       0.232910         6.3378
  44   0.0000       0.320765         8.7284

E(0)                                       ...  -5184.601458989
E(0)                                       ...  -5184.601458989
E(CORR)                                    ...     -0.760799304
E(TOT)                                     ...  -5185.362258293
E(CCSD(T))                                 ...  -5185.389561699

MULLIKEN ATOMIC CHARGES
-----------------------
   0 C :   -0.212593
   1 Br:   -0.703486
   2 H :    0.205715
   3 H :    0.206244
   4 H :    0.206034
   5 Br:   -0.701914
Sum of atomic charges:   -1.0000000

LOEWDIN ATOMIC CHARGES
----------------------
   0 C :   -0.382801
   1 Br:   -0.487414
   2 H :    0.118847
   3 H :    0.118480
   4 H :    0.118448
   5 Br:   -0.485561

  Mayer bond orders larger than 0.100000
B(  0-C ,  1-Br) :   0.3769 B(  0-C ,  2-H ) :   0.9000 B(  0-C ,  3-H ) :   0.8998
B(  0-C ,  4-H ) :   0.8999 B(  0-C ,  5-Br) :   0.3790

FINAL SINGLE POINT ENERGY     -5185.389561699379

DIPOLE MOMENT
-------------
                                X             Y             Z
Electronic contribution:      0.01444       0.06015       0.07488
Nuclear contribution   :     -0.02633      -0.07727      -0.09021
                        -----------------------------------------
Total Dipole Moment    :     -0.01189      -0.01712      -0.01533
                        -----------------------------------------
Magnitude (a.u.)       :      0.02587
Magnitude (Debye)      :      0.06577

Rotational constants in cm-1:     4.727390     0.017399     0.017399
Rotational constants in MHz : 141723.595582   521.596694   521.596097

                             ****ORCA TERMINATED NORMALLY****
TOTAL RUN TIME: 0 days 0 hours 1 minutes 30 seconds 640 msec
