                         Program Version 4.2.1 -  RELEASE  -
|  1> ! SP CCSD(T) def2-TZVP CPCM(Acetone)
|  2> %cpcm
|  3> surfacetype vdw_gaussian
|  4> end
|  5> %geom MaxIter 100 end
|  6> %output
|  7> xyzfile=True
|  8> end
|  9> %scf
| 10> maxiter 250
| 11> end
| 12> %output
| 13> Print[P_Hirshfeld] = 1
| 14> end
| 15> % maxcore
| 16> 4000
| 17> %pal nprocs 4
| 18> end
| 19> *xyz -1 1
| 20>   C   -0.80650905240645      1.81498257968507     -0.97028131098040
| 21>   C   -0.39384587139118      0.40198268915161     -1.43289545212279
| 22>   C   0.74046133340072      0.54301297073132     -2.45337400622885
| 23>   C   -1.63223989581376     -0.23506750206944     -2.08179507890593
| 24>   C   0.07931196898912     -0.45521676414344     -0.28003043648872
| 25>   Br  0.27646401945590      0.86984967012505      1.93830740195140
| 26>   H   -1.59542572044043      1.77105966267880     -0.20703021823718
| 27>   H   -1.18918698874862      2.36454518955141     -1.84570318855583
| 28>   H   0.04358465501897      2.36146486963979     -0.54165468548673
| 29>   H   1.61603784723769      1.03081894067819     -1.99613828346005
| 30>   H   0.41266246501194      1.16297964295991     -3.30155813298936
| 31>   H   1.04949685120089     -0.44267654067850     -2.83083014786118
| 32>   H   -1.39251264675738     -1.22581819665985     -2.49137486898775
| 33>   H   -2.44241696908525     -0.34979141698022     -1.34489493047423
| 34>   H   -2.00045290693153      0.40968555009221     -2.89464064573198
| 35>   H   -0.62192993810835     -1.02871490786956      0.31691545919021
| 36>   H   1.13586252024794     -0.57283736813497     -0.07126803026659
| 37>   Br  0.51447832911979     -2.82441906875740     -1.34437344436402
| 38> *
| 39>
| 40>                          ****END OF INPUT****

CARTESIAN COORDINATES (ANGSTROEM)
---------------------------------
  C     -0.806509    1.814983   -0.970281
  C     -0.393846    0.401983   -1.432895
  C      0.740461    0.543013   -2.453374
  C     -1.632240   -0.235068   -2.081795
  C      0.079312   -0.455217   -0.280030
  Br     0.276464    0.869850    1.938307
  H     -1.595426    1.771060   -0.207030
  H     -1.189187    2.364545   -1.845703
  H      0.043585    2.361465   -0.541655
  H      1.616038    1.030819   -1.996138
  H      0.412662    1.162980   -3.301558
  H      1.049497   -0.442677   -2.830830
  H     -1.392513   -1.225818   -2.491375
  H     -2.442417   -0.349791   -1.344895
  H     -2.000453    0.409686   -2.894641
  H     -0.621930   -1.028715    0.316915
  H      1.135863   -0.572837   -0.071268
  Br     0.514478   -2.824419   -1.344373

 Total Charge           Charge          ....   -1
 Multiplicity           Mult            ....    1
 Number of Electrons    NEL             ....  112
 Basis Dimension        Dim             ....  317

ORBITAL ENERGIES
----------------

  NO   OCC          E(Eh)            E(eV)
   0   2.0000    -489.929370    -13331.6559
   1   2.0000    -489.927449    -13331.6037
   2   2.0000     -65.072518     -1770.7132
   3   2.0000     -65.070601     -1770.6611
   4   2.0000     -58.427049     -1589.8808
   5   2.0000     -58.426794     -1589.8739
   6   2.0000     -58.426773     -1589.8733
   7   2.0000     -58.425107     -1589.8280
   8   2.0000     -58.424890     -1589.8221
   9   2.0000     -58.424884     -1589.8219
  10   2.0000     -11.328321      -308.2593
  11   2.0000     -11.250246      -306.1348
  12   2.0000     -11.212087      -305.0964
  13   2.0000     -11.207710      -304.9773
  14   2.0000     -11.207604      -304.9744
  15   2.0000      -9.745876      -265.1988
  16   2.0000      -9.743938      -265.1460
  17   2.0000      -7.354678      -200.1310
  18   2.0000      -7.353382      -200.0957
  19   2.0000      -7.353304      -200.0936
  20   2.0000      -7.352632      -200.0753
  21   2.0000      -7.351496      -200.0444
  22   2.0000      -7.351475      -200.0438
  23   2.0000      -3.095624       -84.2362
  24   2.0000      -3.095115       -84.2224
  25   2.0000      -3.094966       -84.2183
  26   2.0000      -3.093533       -84.1793
  27   2.0000      -3.093405       -84.1758
  28   2.0000      -3.093399       -84.1757
  29   2.0000      -3.093065       -84.1666
  30   2.0000      -3.093010       -84.1651
  31   2.0000      -3.091633       -84.1276
  32   2.0000      -3.091632       -84.1276
  33   2.0000      -1.118753       -30.4428
  34   2.0000      -0.956781       -26.0353
  35   2.0000      -0.928505       -25.2659
  36   2.0000      -0.927307       -25.2333
  37   2.0000      -0.904041       -24.6002
  38   2.0000      -0.888085       -24.1660
  39   2.0000      -0.742926       -20.2160
  40   2.0000      -0.647128       -17.6092
  41   2.0000      -0.629815       -17.1381
  42   2.0000      -0.592971       -16.1356
  43   2.0000      -0.577031       -15.7018
  44   2.0000      -0.533401       -14.5146
  45   2.0000      -0.523211       -14.2373
  46   2.0000      -0.505617       -13.7585
  47   2.0000      -0.493014       -13.4156
  48   2.0000      -0.465650       -12.6710
  49   2.0000      -0.461867       -12.5680
  50   2.0000      -0.388881       -10.5820
  51   2.0000      -0.358703        -9.7608
  52   2.0000      -0.355347        -9.6695
  53   2.0000      -0.353548        -9.6205
  54   2.0000      -0.352129        -9.5819
  55   2.0000      -0.329884        -8.9766
  56   0.0000       0.088348         2.4041
  57   0.0000       0.145867         3.9692
  58   0.0000       0.198520         5.4020
  59   0.0000       0.200029         5.4431
  60   0.0000       0.206689         5.6243

E(0)                                       ...  -5340.778477816
E(0)                                       ...  -5340.778477816
E(CORR)                                    ...     -1.486586664
E(TOT)                                     ...  -5342.265064480
E(CCSD(T))                                 ...  -5342.323497451

MULLIKEN ATOMIC CHARGES
-----------------------
   0 C :   -0.381416
   1 C :    0.128648
   2 C :   -0.448276
   3 C :   -0.441777
   4 C :   -0.091308
   5 Br:   -0.728579
   6 H :    0.138344
   7 H :    0.144636
   8 H :    0.138528
   9 H :    0.143674
  10 H :    0.143148
  11 H :    0.144609
  12 H :    0.145822
  13 H :    0.143781
  14 H :    0.142728
  15 H :    0.212560
  16 H :    0.211839
  17 Br:   -0.746961
Sum of atomic charges:   -1.0000000

LOEWDIN ATOMIC CHARGES
----------------------
   0 C :   -0.281389
   1 C :   -0.378912
   2 C :   -0.274246
   3 C :   -0.276455
   4 C :   -0.146806
   5 Br:   -0.508971
   6 H :    0.124122
   7 H :    0.131076
   8 H :    0.121522
   9 H :    0.131010
  10 H :    0.130713
  11 H :    0.120946
  12 H :    0.117598
  13 H :    0.130782
  14 H :    0.130407
  15 H :    0.134581
  16 H :    0.132333
  17 Br:   -0.538313

  Mayer bond orders larger than 0.100000
B(  0-C ,  1-C ) :   0.8837 B(  0-C ,  6-H ) :   0.9193 B(  0-C ,  7-H ) :   0.9128
B(  0-C ,  8-H ) :   0.9178 B(  1-C ,  2-C ) :   0.8860 B(  1-C ,  3-C ) :   0.8834
B(  1-C ,  4-C ) :   0.9271 B(  2-C ,  9-H ) :   0.9193 B(  2-C , 10-H ) :   0.9217
B(  2-C , 11-H ) :   0.9181 B(  3-C , 12-H ) :   0.9166 B(  3-C , 13-H ) :   0.9197
B(  3-C , 14-H ) :   0.9203 B(  4-C ,  5-Br) :   0.3285 B(  4-C , 15-H ) :   0.8897
B(  4-C , 16-H ) :   0.8914 B(  4-C , 17-Br) :   0.2794

FINAL SINGLE POINT ENERGY     -5342.323497451032

DIPOLE MOMENT
-------------
                                X             Y             Z
Electronic contribution:      9.90466     -17.19605      21.94049
Nuclear contribution   :    -10.80558      18.79654     -23.68059
                        -----------------------------------------
Total Dipole Moment    :     -0.90092       1.60049      -1.74009
                        -----------------------------------------
Magnitude (a.u.)       :      2.53005
Magnitude (Debye)      :      6.43088

Rotational constants in cm-1:     0.042819     0.015472     0.012326
Rotational constants in MHz :  1283.678872   463.853186   369.516174

                             ****ORCA TERMINATED NORMALLY****
TOTAL RUN TIME: 0 days 1 hours 35 minutes 44 seconds 339 msec
