                         Program Version 4.2.1 -  RELEASE  -
|  1> ! SP CCSD(T) def2-TZVP CPCM(Acetone)
|  2> %cpcm
|  3> surfacetype vdw_gaussian
|  4> end
|  5> %geom MaxIter 100 end
|  6> %output
|  7> xyzfile=True
|  8> end
|  9> %scf
| 10> maxiter 250
| 11> end
| 12> %output
| 13> Print[P_Hirshfeld] = 1
| 14> end
| 15> % maxcore
| 16> 4000
| 17> %pal nprocs 4
| 18> end
| 19> *xyz -1 1
| 20>   C   2.39605708653238      0.15624005166314     -0.90809221500116
| 21>   C   1.01957456461652      0.78208338065718     -0.71372151671251
| 22>   C   0.64703824905782      1.74985782175575     -1.83270395534199
| 23>   C   -0.04343684495700     -0.24776697107096     -0.44936852073448
| 24>   Br  -0.63983461767278      0.13751165737718      1.96663068832386
| 25>   H   2.41695321457854     -0.44414709356608     -1.83031779424455
| 26>   H   3.16664640277637      0.93885393701000     -0.97849267651231
| 27>   H   2.65509296681467     -0.50249882889936     -0.06451207304012
| 28>   H   1.05530504125381      1.37481609362682      0.21568441309052
| 29>   H   -0.33391754309356      2.21518635107154     -1.64713553823436
| 30>   H   1.39199193656133      2.55695210703635     -1.90422495636491
| 31>   H   0.60276357902514      1.22146509126090     -2.79633943376460
| 32>   H   -1.08747345954916     -0.03738012987422     -0.66152565933115
| 33>   H   0.21321070452521     -1.24855071058347     -0.11904641522795
| 34>   Br  -0.16658128046930     -1.48828275746477     -2.74950434690427
| 35> *
| 36>
| 37>                          ****END OF INPUT****

CARTESIAN COORDINATES (ANGSTROEM)
---------------------------------
  C      2.396057    0.156240   -0.908092
  C      1.019575    0.782083   -0.713722
  C      0.647038    1.749858   -1.832704
  C     -0.043437   -0.247767   -0.449369
  Br    -0.639835    0.137512    1.966631
  H      2.416953   -0.444147   -1.830318
  H      3.166646    0.938854   -0.978493
  H      2.655093   -0.502499   -0.064512
  H      1.055305    1.374816    0.215684
  H     -0.333918    2.215186   -1.647136
  H      1.391992    2.556952   -1.904225
  H      0.602764    1.221465   -2.796339
  H     -1.087473   -0.037380   -0.661526
  H      0.213211   -1.248551   -0.119046
  Br    -0.166581   -1.488283   -2.749504

 Total Charge           Charge          ....   -1
 Multiplicity           Mult            ....    1
 Number of Electrons    NEL             ....  104
 Basis Dimension        Dim             ....  274

ORBITAL ENERGIES
----------------

  NO   OCC          E(Eh)            E(eV)
   0   2.0000    -489.934765    -13331.8027
   1   2.0000    -489.926851    -13331.5874
   2   2.0000     -65.077925     -1770.8604
   3   2.0000     -65.070017     -1770.6452
   4   2.0000     -58.432459     -1590.0280
   5   2.0000     -58.432175     -1590.0203
   6   2.0000     -58.432174     -1590.0203
   7   2.0000     -58.424520     -1589.8120
   8   2.0000     -58.424310     -1589.8063
   9   2.0000     -58.424304     -1589.8061
  10   2.0000     -11.325731      -308.1888
  11   2.0000     -11.237639      -305.7917
  12   2.0000     -11.208522      -304.9994
  13   2.0000     -11.208253      -304.9921
  14   2.0000      -9.751331      -265.3472
  15   2.0000      -9.743370      -265.1306
  16   2.0000      -7.360195      -200.2811
  17   2.0000      -7.358744      -200.2416
  18   2.0000      -7.358737      -200.2414
  19   2.0000      -7.352060      -200.0597
  20   2.0000      -7.350942      -200.0293
  21   2.0000      -7.350921      -200.0287
  22   2.0000      -3.101170       -84.3871
  23   2.0000      -3.100545       -84.3701
  24   2.0000      -3.100520       -84.3694
  25   2.0000      -3.098752       -84.3213
  26   2.0000      -3.098750       -84.3213
  27   2.0000      -3.092954       -84.1636
  28   2.0000      -3.092493       -84.1510
  29   2.0000      -3.092437       -84.1495
  30   2.0000      -3.091092       -84.1129
  31   2.0000      -3.091091       -84.1129
  32   2.0000      -1.098374       -29.8883
  33   2.0000      -0.954806       -25.9816
  34   2.0000      -0.925297       -25.1786
  35   2.0000      -0.912840       -24.8396
  36   2.0000      -0.887062       -24.1382
  37   2.0000      -0.773507       -21.0482
  38   2.0000      -0.641866       -17.4661
  39   2.0000      -0.628849       -17.1118
  40   2.0000      -0.599220       -16.3056
  41   2.0000      -0.536412       -14.5965
  42   2.0000      -0.523468       -14.2443
  43   2.0000      -0.501625       -13.6499
  44   2.0000      -0.480195       -13.0668
  45   2.0000      -0.474670       -12.9164
  46   2.0000      -0.392190       -10.6720
  47   2.0000      -0.362243        -9.8571
  48   2.0000      -0.359426        -9.7805
  49   2.0000      -0.353755        -9.6262
  50   2.0000      -0.352966        -9.6047
  51   2.0000      -0.331791        -9.0285
  52   0.0000       0.096000         2.6123
  53   0.0000       0.153102         4.1661
  54   0.0000       0.193833         5.2745
  55   0.0000       0.200072         5.4442
  56   0.0000       0.210886         5.7385

E(0)                                       ...  -5301.740894289
E(0)                                       ...  -5301.740894289
E(CORR)                                    ...     -1.302197508
E(TOT)                                     ...  -5303.043091797
E(CCSD(T))                                 ...  -5303.093000836

MULLIKEN ATOMIC CHARGES
-----------------------
   0 C :   -0.433883
   1 C :    0.018107
   2 C :   -0.427896
   3 C :   -0.081201
   4 Br:   -0.704759
   5 H :    0.135999
   6 H :    0.142627
   7 H :    0.141377
   8 H :    0.132954
   9 H :    0.141414
  10 H :    0.141973
  11 H :    0.136168
  12 H :    0.208665
  13 H :    0.209045
  14 Br:   -0.760590
Sum of atomic charges:   -1.0000000

LOEWDIN ATOMIC CHARGES
----------------------
   0 C :   -0.297606
   1 C :   -0.358312
   2 C :   -0.300030
   3 C :   -0.204694
   4 Br:   -0.483564
   5 H :    0.120380
   6 H :    0.127931
   7 H :    0.128548
   8 H :    0.169109
   9 H :    0.128544
  10 H :    0.127634
  11 H :    0.117721
  12 H :    0.134559
  13 H :    0.132971
  14 Br:   -0.543191

  Mayer bond orders larger than 0.100000
B(  0-C ,  1-C ) :   0.8964 B(  0-C ,  5-H ) :   0.9159 B(  0-C ,  6-H ) :   0.9244
B(  0-C ,  7-H ) :   0.9218 B(  1-C ,  2-C ) :   0.8914 B(  1-C ,  3-C ) :   0.9189
B(  1-C ,  8-H ) :   0.8860 B(  2-C ,  9-H ) :   0.9225 B(  2-C , 10-H ) :   0.9235
B(  2-C , 11-H ) :   0.9149 B(  3-C ,  4-Br) :   0.3627 B(  3-C , 12-H ) :   0.8980
B(  3-C , 13-H ) :   0.8978 B(  3-C , 14-Br) :   0.2597

FINAL SINGLE POINT ENERGY     -5303.093000836079

DIPOLE MOMENT
-------------
                                X             Y             Z
Electronic contribution:    -15.47132     -13.52921       7.35049
Nuclear contribution   :     16.66500      14.85689      -7.48153
                        -----------------------------------------
Total Dipole Moment    :      1.19368       1.32768      -0.13104
                        -----------------------------------------
Magnitude (a.u.)       :      1.79019
Magnitude (Debye)      :      4.55031

Rotational constants in cm-1:     0.061789     0.015673     0.013648
Rotational constants in MHz :  1852.373619   469.879699   409.161279

                             ****ORCA TERMINATED NORMALLY****
TOTAL RUN TIME: 0 days 0 hours 44 minutes 45 seconds 349 msec
