                         Program Version 4.2.1 -  RELEASE  -
|  1> ! SP CCSD(T) def2-TZVP CPCM(Acetone)
|  2> %cpcm
|  3> surfacetype vdw_gaussian
|  4> end
|  5> %geom MaxIter 100 end
|  6> %output
|  7> xyzfile=True
|  8> end
|  9> %scf
| 10> maxiter 250
| 11> end
| 12> %output
| 13> Print[P_Hirshfeld] = 1
| 14> end
| 15> % maxcore
| 16> 4000
| 17> %pal nprocs 4
| 18> end
| 19> *xyz -1 1
| 20>   C   6.83334234978905      1.28701444278416      0.03730305269981
| 21>   C   6.14386808306505     -0.00788543315832     -0.10127539806411
| 22>   C   4.70533409285786     -0.08376257327231      0.21846178538009
| 23>   C   6.88833894146518     -1.18970292605121     -0.57492159905584
| 24>   Br  6.85050007574591     -0.55429555936322      2.80856320604875
| 25>   H   6.79145350508440      1.72862003606724     -0.97534685769446
| 26>   H   6.32090184687673      1.95960451985497      0.73382181491349
| 27>   H   7.88841865405742      1.15814305106992      0.30895416327180
| 28>   H   4.18337696708613      0.61305067747910     -0.45512001605608
| 29>   H   4.55108942570366      0.27653331371501      1.24506983480046
| 30>   H   4.29205336041436     -1.09067149507273      0.09039051308856
| 31>   H   7.27998689414387     -1.66213329481552      0.34393185027290
| 32>   H   7.74171424707179     -0.90959130066328     -1.20374357072606
| 33>   H   6.23580779328317     -1.90576274691100     -1.08602209482774
| 34>   Br  5.44598526299594      0.46855588677702     -3.01760864544280
| 35> *
| 36>
| 37>                          ****END OF INPUT****

CARTESIAN COORDINATES (ANGSTROEM)
---------------------------------
  C      6.833342    1.287014    0.037303
  C      6.143868   -0.007885   -0.101275
  C      4.705334   -0.083763    0.218462
  C      6.888339   -1.189703   -0.574922
  Br     6.850500   -0.554296    2.808563
  H      6.791454    1.728620   -0.975347
  H      6.320902    1.959605    0.733822
  H      7.888419    1.158143    0.308954
  H      4.183377    0.613051   -0.455120
  H      4.551089    0.276533    1.245070
  H      4.292053   -1.090671    0.090391
  H      7.279987   -1.662133    0.343932
  H      7.741714   -0.909591   -1.203744
  H      6.235808   -1.905763   -1.086022
  Br     5.445985    0.468556   -3.017609

 Total Charge           Charge          ....   -1
 Multiplicity           Mult            ....    1
 Number of Electrons    NEL             ....  104
 Basis Dimension        Dim             ....  274

ORBITAL ENERGIES
----------------

  NO   OCC          E(Eh)            E(eV)
   0   2.0000    -489.914305    -13331.2460
   1   2.0000    -489.913801    -13331.2323
   2   2.0000     -65.057642     -1770.3085
   3   2.0000     -65.057163     -1770.2954
   4   2.0000     -58.412024     -1589.4720
   5   2.0000     -58.412020     -1589.4719
   6   2.0000     -58.412004     -1589.4714
   7   2.0000     -58.411548     -1589.4590
   8   2.0000     -58.411541     -1589.4588
   9   2.0000     -58.411517     -1589.4582
  10   2.0000     -11.367585      -309.3277
  11   2.0000     -11.234460      -305.7052
  12   2.0000     -11.233936      -305.6909
  13   2.0000     -11.233846      -305.6885
  14   2.0000      -9.731091      -264.7964
  15   2.0000      -9.730632      -264.7840
  16   2.0000      -7.339167      -199.7089
  17   2.0000      -7.339083      -199.7066
  18   2.0000      -7.339071      -199.7063
  19   2.0000      -7.338707      -199.6964
  20   2.0000      -7.338632      -199.6943
  21   2.0000      -7.338614      -199.6938
  22   2.0000      -3.079821       -83.8062
  23   2.0000      -3.079806       -83.8058
  24   2.0000      -3.079791       -83.8054
  25   2.0000      -3.079750       -83.8043
  26   2.0000      -3.079748       -83.8042
  27   2.0000      -3.079373       -83.7940
  28   2.0000      -3.079359       -83.7936
  29   2.0000      -3.079334       -83.7929
  30   2.0000      -3.079277       -83.7914
  31   2.0000      -3.079272       -83.7912
  32   2.0000      -1.137264       -30.9465
  33   2.0000      -0.974661       -26.5219
  34   2.0000      -0.971046       -26.4235
  35   2.0000      -0.897322       -24.4174
  36   2.0000      -0.894072       -24.3289
  37   2.0000      -0.748466       -20.3668
  38   2.0000      -0.637620       -17.3505
  39   2.0000      -0.636887       -17.3306
  40   2.0000      -0.621854       -16.9215
  41   2.0000      -0.559446       -15.2233
  42   2.0000      -0.554270       -15.0825
  43   2.0000      -0.536132       -14.5889
  44   2.0000      -0.525246       -14.2927
  45   2.0000      -0.522721       -14.2240
  46   2.0000      -0.352100        -9.5811
  47   2.0000      -0.348875        -9.4934
  48   2.0000      -0.348572        -9.4851
  49   2.0000      -0.344835        -9.3834
  50   2.0000      -0.343985        -9.3603
  51   2.0000      -0.340940        -9.2775
  52   0.0000       0.057167         1.5556
  53   0.0000       0.150432         4.0935
  54   0.0000       0.197739         5.3808
  55   0.0000       0.199447         5.4272
  56   0.0000       0.217201         5.9104

E(0)                                       ...  -5301.758847876
E(0)                                       ...  -5301.758847876
E(CORR)                                    ...     -1.287227497
E(TOT)                                     ...  -5303.046075372
E(CCSD(T))                                 ...  -5303.092495584

MULLIKEN ATOMIC CHARGES
-----------------------
   0 C :   -0.369318
   1 C :    0.257475
   2 C :   -0.385779
   3 C :   -0.372439
   4 Br:   -0.907302
   5 H :    0.208524
   6 H :    0.171344
   7 H :    0.180900
   8 H :    0.199901
   9 H :    0.195111
  10 H :    0.168987
  11 H :    0.210303
  12 H :    0.175765
  13 H :    0.174366
  14 Br:   -0.907837
Sum of atomic charges:   -1.0000000

LOEWDIN ATOMIC CHARGES
----------------------
   0 C :   -0.262814
   1 C :   -0.058502
   2 C :   -0.264317
   3 C :   -0.267445
   4 Br:   -0.769274
   5 H :    0.165487
   6 H :    0.147307
   7 H :    0.151645
   8 H :    0.162429
   9 H :    0.155038
  10 H :    0.144893
  11 H :    0.164731
  12 H :    0.149709
  13 H :    0.146391
  14 Br:   -0.765279

  Mayer bond orders larger than 0.100000
B(  0-C ,  1-C ) :   0.9566 B(  0-C ,  5-H ) :   0.8393 B(  0-C ,  6-H ) :   0.9083
B(  0-C ,  7-H ) :   0.8998 B(  1-C ,  2-C ) :   0.9511 B(  1-C ,  3-C ) :   0.9551
B(  1-C ,  4-Br) :   0.1733 B(  1-C , 14-Br) :   0.1781 B(  2-C ,  8-H ) :   0.8637
B(  2-C ,  9-H ) :   0.8743 B(  2-C , 10-H ) :   0.9165 B(  3-C , 11-H ) :   0.8390
B(  3-C , 12-H ) :   0.9055 B(  3-C , 13-H ) :   0.9042

FINAL SINGLE POINT ENERGY     -5303.092495584202

DIPOLE MOMENT
-------------
                                X             Y             Z
Electronic contribution:      0.06395      -0.49686       0.05415
Nuclear contribution   :     -0.06104       0.64477      -0.05783
                        -----------------------------------------
Total Dipole Moment    :      0.00291       0.14791      -0.00367
                        -----------------------------------------
Magnitude (a.u.)       :      0.14799
Magnitude (Debye)      :      0.37615

Rotational constants in cm-1:     0.147862     0.010963     0.010950
Rotational constants in MHz :  4432.797553   328.666269   328.259642

                             ****ORCA TERMINATED NORMALLY****
TOTAL RUN TIME: 0 days 0 hours 39 minutes 48 seconds 481 msec
