                         Program Version 4.2.1 -  RELEASE  -
|  1> ! SP CCSD(T) def2-TZVP CPCM(Acetone)
|  2> %cpcm
|  3> surfacetype vdw_gaussian
|  4> end
|  5> %geom MaxIter 100 end
|  6> %output
|  7> xyzfile=True
|  8> end
|  9> %scf
| 10> maxiter 250
| 11> end
| 12> %output
| 13> Print[P_Hirshfeld] = 1
| 14> end
| 15> % maxcore
| 16> 4000
| 17> %pal nprocs 4
| 18> end
| 19> *xyz -1 1
| 20> C   6.81195377804339      1.33669859705544     -0.12409115264081
| 21>   C   6.11596718133542      0.04566710115891     -0.23259894752560
| 22>   C   4.70302716638428     -0.05160324312650      0.16254123997303
| 23>   C   6.84158226788788     -1.14601610130547     -0.69226151128172
| 24>   Br  6.85050005803464     -0.55429554692500      2.80856313473467
| 25>   H   6.64903769411805      1.79369029504183     -1.11879110464942
| 26>   H   6.37419568570653      1.98623367511860      0.64133634386059
| 27>   H   7.89243236459460      1.21171290012729      0.02118328099120
| 28>   H   4.15984738506656      0.23512109440381     -0.75738874131454
| 29>   H   4.44981516194393      0.65615210747933      0.95923883102737
| 30>   H   4.41634402027223     -1.07689436042766      0.42657409607096
| 31>   H   7.24364804806418     -1.57497971959576      0.24708529761762
| 32>   H   7.68098297029870     -0.89175684746912     -1.34846520329168
| 33>   H   6.17569640137360     -1.88116918163514     -1.15711038096883
| 34>   Cl  5.44598528070721      0.46855587433879     -3.01760857412873
| 35> *
| 36>
| 37>                          ****END OF INPUT****

CARTESIAN COORDINATES (ANGSTROEM)
---------------------------------
  C      6.811954    1.336699   -0.124091
  C      6.115967    0.045667   -0.232599
  C      4.703027   -0.051603    0.162541
  C      6.841582   -1.146016   -0.692262
  Br     6.850500   -0.554296    2.808563
  H      6.649038    1.793690   -1.118791
  H      6.374196    1.986234    0.641336
  H      7.892432    1.211713    0.021183
  H      4.159847    0.235121   -0.757389
  H      4.449815    0.656152    0.959239
  H      4.416344   -1.076894    0.426574
  H      7.243648   -1.574980    0.247085
  H      7.680983   -0.891757   -1.348465
  H      6.175696   -1.881169   -1.157110
  Cl     5.445985    0.468556   -3.017609

 Total Charge           Charge          ....   -1
 Multiplicity           Mult            ....    1
 Number of Electrons    NEL             ....   86
 Basis Dimension        Dim             ....  263

ORBITAL ENERGIES
----------------

  NO   OCC          E(Eh)            E(eV)
   0   2.0000    -489.913477    -13331.2235
   1   2.0000    -104.710061     -2849.3056
   2   2.0000     -65.056743     -1770.2840
   3   2.0000     -58.411137     -1589.4478
   4   2.0000     -58.411134     -1589.4478
   5   2.0000     -58.411108     -1589.4471
   6   2.0000     -11.365589      -309.2734
   7   2.0000     -11.234562      -305.7080
   8   2.0000     -11.234497      -305.7062
   9   2.0000     -11.233876      -305.6893
  10   2.0000     -10.438646      -284.0500
  11   2.0000      -9.730119      -264.7700
  12   2.0000      -7.905139      -215.1098
  13   2.0000      -7.905074      -215.1080
  14   2.0000      -7.905069      -215.1079
  15   2.0000      -7.338158      -199.6814
  16   2.0000      -7.338126      -199.6806
  17   2.0000      -7.338117      -199.6803
  18   2.0000      -3.078872       -83.7804
  19   2.0000      -3.078867       -83.7802
  20   2.0000      -3.078811       -83.7787
  21   2.0000      -3.078785       -83.7780
  22   2.0000      -3.078779       -83.7778
  23   2.0000      -1.139733       -31.0137
  24   2.0000      -0.974035       -26.5048
  25   2.0000      -0.973364       -26.4866
  26   2.0000      -0.956680       -26.0326
  27   2.0000      -0.893257       -24.3068
  28   2.0000      -0.746918       -20.3247
  29   2.0000      -0.638148       -17.3649
  30   2.0000      -0.637428       -17.3453
  31   2.0000      -0.624145       -16.9839
  32   2.0000      -0.558158       -15.1883
  33   2.0000      -0.556637       -15.1469
  34   2.0000      -0.536262       -14.5924
  35   2.0000      -0.525521       -14.3002
  36   2.0000      -0.521431       -14.1889
  37   2.0000      -0.371382       -10.1058
  38   2.0000      -0.370832       -10.0909
  39   2.0000      -0.370259       -10.0753
  40   2.0000      -0.345903        -9.4125
  41   2.0000      -0.345485        -9.4011
  42   2.0000      -0.344594        -9.3769
  43   0.0000       0.061765         1.6807
  44   0.0000       0.151474         4.1218
  45   0.0000       0.195376         5.3164
  46   0.0000       0.200680         5.4608
  47   0.0000       0.215759         5.8711

E(0)                                       ...  -3188.848568938
E(0)                                       ...  -3188.848568938
E(CORR)                                    ...     -1.209813564
E(TOT)                                     ...  -3190.058382503
E(CCSD(T))                                 ...  -3190.103389562

MULLIKEN ATOMIC CHARGES
-----------------------
   0 C :   -0.388521
   1 C :    0.280654
   2 C :   -0.384213
   3 C :   -0.366260
   4 Br:   -0.929159
   5 H :    0.205502
   6 H :    0.173967
   7 H :    0.181240
   8 H :    0.204361
   9 H :    0.175232
  10 H :    0.177948
  11 H :    0.205901
  12 H :    0.172389
  13 H :    0.173144
  14 Cl:   -0.882183
Sum of atomic charges:   -1.0000000

LOEWDIN ATOMIC CHARGES
----------------------
   0 C :   -0.256214
   1 C :   -0.050633
   2 C :   -0.259177
   3 C :   -0.262409
   4 Br:   -0.818665
   5 H :    0.169747
   6 H :    0.147569
   7 H :    0.153228
   8 H :    0.169069
   9 H :    0.147938
  10 H :    0.151251
  11 H :    0.168568
  12 H :    0.148318
  13 H :    0.148384
  14 Cl:   -0.756973

  Mayer bond orders larger than 0.100000
B(  0-C ,  1-C ) :   0.9653 B(  0-C ,  5-H ) :   0.8352 B(  0-C ,  6-H ) :   0.9051
B(  0-C ,  7-H ) :   0.9013 B(  1-C ,  2-C ) :   0.9642 B(  1-C ,  3-C ) :   0.9581
B(  1-C ,  4-Br) :   0.1337 B(  1-C , 14-Cl) :   0.1458 B(  2-C ,  8-H ) :   0.8355
B(  2-C ,  9-H ) :   0.9020 B(  2-C , 10-H ) :   0.9052 B(  3-C , 11-H ) :   0.8289
B(  3-C , 12-H ) :   0.9070 B(  3-C , 13-H ) :   0.9061

FINAL SINGLE POINT ENERGY     -3190.103389561664

DIPOLE MOMENT
-------------
                                X             Y             Z
Electronic contribution:      5.68348      -4.62779      23.50878
Nuclear contribution   :     -5.47886       4.63106     -22.65938
                        -----------------------------------------
Total Dipole Moment    :      0.20462       0.00327       0.84940
                        -----------------------------------------
Magnitude (a.u.)       :      0.87371
Magnitude (Debye)      :      2.22078

Rotational constants in cm-1:     0.148808     0.016297     0.016292
Rotational constants in MHz :  4461.138284   488.570830   488.433405

                             ****ORCA TERMINATED NORMALLY****
TOTAL RUN TIME: 0 days 0 hours 20 minutes 58 seconds 956 msec
