                         Program Version 4.2.1 -  RELEASE  -
|  1> ! Opt PBE0 RIJCOSX D3BJ def2-SVP def2/J CPCM(Acetone)
|  2> %cpcm
|  3> surfacetype vdw_gaussian
|  4> end
|  5> %geom MaxIter 100 end
|  6> %output
|  7> xyzfile=True
|  8> end
|  9> %scf
| 10> maxiter 250
| 11> end
| 12> %output
| 13> Print[P_Hirshfeld] = 1
| 14> end
| 15> % maxcore
| 16> 4000
| 17> %pal nprocs 4
| 18> end
| 19> *xyz -1 1
| 20> C    -0.57310  -1.88711   0.55640
| 21> C    -1.35834  -1.03637  -0.44250
| 22> C    -2.01581   0.14191   0.27573
| 23> C    -2.44196  -1.89376  -1.11232
| 24> C    -0.46508  -0.55869  -1.58531
| 25> Br    1.03671   0.58118  -1.04391
| 26> H    -0.02041  -2.69338   0.04792
| 27> H    -1.26464  -2.35025   1.27852
| 28> H     0.13361  -1.27041   1.13344
| 29> H    -2.53707   0.80304  -0.43596
| 30> H    -2.75753  -0.22964   1.00066
| 31> H    -1.27592   0.72963   0.84088
| 32> H    -2.00386  -2.75081  -1.64785
| 33> H    -3.13241  -2.28595  -0.34934
| 34> H    -3.03172  -1.30301  -1.83188
| 35> H    -0.00208  -1.40587  -2.10866
| 36> H    -1.03066   0.04815  -2.30474
| 37> Br    0.46667   0.82462   3.25910
| 38> *
| 39>
| 40>                          ****END OF INPUT****
 Total Charge           Charge          ....   -1
 Multiplicity           Mult            ....    1
 Number of Electrons    NEL             ....  112
Dispersion correction           -0.016700866
FINAL SINGLE POINT ENERGY     -5344.062488114947
Dispersion correction            ... done
Dispersion correction           -0.016459440
FINAL SINGLE POINT ENERGY     -5344.062935712715
Dispersion correction            ... done
Dispersion correction           -0.016350837
FINAL SINGLE POINT ENERGY     -5344.063266024840
Dispersion correction            ... done
FINAL SINGLE POINT ENERGY     -5344.063460105557
FINAL SINGLE POINT ENERGY     -5344.063481267593
FINAL SINGLE POINT ENERGY     -5344.063481287906
FINAL SINGLE POINT ENERGY     -5344.063479703372
FINAL SINGLE POINT ENERGY     -5344.063478821294
FINAL SINGLE POINT ENERGY     -5344.063478770545
FINAL SINGLE POINT ENERGY     -5344.063479344909
FINAL SINGLE POINT ENERGY     -5344.063479823193
FINAL SINGLE POINT ENERGY     -5344.063472779552
Dispersion correction            ... done
Dispersion correction           -0.016176691
FINAL SINGLE POINT ENERGY     -5344.063479256906
Dispersion correction            ... done
Dispersion correction           -0.016180511
FINAL SINGLE POINT ENERGY     -5344.063479303123
Dispersion correction            ... done
                    ***********************HURRAY********************

CARTESIAN COORDINATES (ANGSTROEM)
---------------------------------
  C     -0.611086   -1.902494    0.554946
  C     -1.378418   -1.047753   -0.453185
  C     -2.057429    0.120939    0.258880
  C     -2.441182   -1.906052   -1.152902
  C     -0.462292   -0.553097   -1.570491
  Br     1.002945    0.610670   -0.982352
  H     -0.082419   -2.729977    0.055337
  H     -1.308031   -2.336507    1.289368
  H      0.124808   -1.300683    1.109907
  H     -2.598557    0.762695   -0.455603
  H     -2.783292   -0.256994    0.995892
  H     -1.323435    0.739421    0.798027
  H     -1.984099   -2.754550   -1.686018
  H     -3.145951   -2.310525   -0.409722
  H     -3.017991   -1.312152   -1.880185
  H      0.029872   -1.390451   -2.082644
  H     -1.017583    0.047248   -2.303034
  Br     0.780539    0.983543    3.443957

 Multiplicity           Mult            ....    1
 Number of Electrons    NEL             ....  112
 Basis Dimension        Dim             ....  189

ORBITAL ENERGIES
----------------

  NO   OCC          E(Eh)            E(eV)
   0   2.0000    -483.172333    -13147.7876
   1   2.0000    -483.063321    -13144.8212
   2   2.0000     -62.608483     -1703.6634
   3   2.0000     -62.498444     -1700.6691
   4   2.0000     -56.397647     -1534.6580
   5   2.0000     -56.395382     -1534.5964
   6   2.0000     -56.395331     -1534.5950
   7   2.0000     -56.286450     -1531.6322
   8   2.0000     -56.286364     -1531.6298
   9   2.0000     -56.285991     -1531.6197
  10   2.0000     -10.274601      -279.5861
  11   2.0000     -10.246092      -278.8103
  12   2.0000     -10.219453      -278.0855
  13   2.0000     -10.213113      -277.9129
  14   2.0000     -10.212638      -277.9000
  15   2.0000      -8.753776      -238.2023
  16   2.0000      -8.641889      -235.1578
  17   2.0000      -6.568074      -178.7264
  18   2.0000      -6.555980      -178.3973
  19   2.0000      -6.555805      -178.3925
  20   2.0000      -6.448353      -175.4686
  21   2.0000      -6.448177      -175.4638
  22   2.0000      -6.448045      -175.4602
  23   2.0000      -2.653543       -72.2066
  24   2.0000      -2.650355       -72.1198
  25   2.0000      -2.650170       -72.1148
  26   2.0000      -2.640369       -71.8481
  27   2.0000      -2.640341       -71.8473
  28   2.0000      -2.535168       -68.9854
  29   2.0000      -2.535144       -68.9848
  30   2.0000      -2.535067       -68.9827
  31   2.0000      -2.534943       -68.9793
  32   2.0000      -2.534925       -68.9788
  33   2.0000      -0.854540       -23.2532
  34   2.0000      -0.788742       -21.4627
  35   2.0000      -0.693581       -18.8733
  36   2.0000      -0.688824       -18.7438
  37   2.0000      -0.666028       -18.1235
  38   2.0000      -0.650692       -17.7062
  39   2.0000      -0.540803       -14.7160
  40   2.0000      -0.471728       -12.8364
  41   2.0000      -0.466102       -12.6833
  42   2.0000      -0.449149       -12.2220
  43   2.0000      -0.417195       -11.3525
  44   2.0000      -0.404587       -11.0094
  45   2.0000      -0.374768       -10.1980
  46   2.0000      -0.366614        -9.9761
  47   2.0000      -0.364790        -9.9264
  48   2.0000      -0.346590        -9.4312
  49   2.0000      -0.332922        -9.0593
  50   2.0000      -0.328055        -8.9268
  51   2.0000      -0.281440        -7.6584
  52   2.0000      -0.279910        -7.6167
  53   2.0000      -0.213733        -5.8160
  54   2.0000      -0.213570        -5.8115
  55   2.0000      -0.213086        -5.7984
  56   0.0000       0.023402         0.6368
  57   0.0000       0.072929         1.9845
  58   0.0000       0.116099         3.1592
  59   0.0000       0.118692         3.2298
  60   0.0000       0.135691         3.6923

MULLIKEN ATOMIC CHARGES
-----------------------
   0 C :    0.013340
   1 C :   -0.405090
   2 C :   -0.004288
   3 C :   -0.003812
   4 C :   -0.021668
   5 Br:   -0.185542
   6 H :    0.038107
   7 H :    0.042356
   8 H :    0.019610
   9 H :    0.042416
  10 H :    0.046876
  11 H :    0.026082
  12 H :    0.044994
  13 H :    0.048525
  14 H :    0.045815
  15 H :    0.098685
  16 H :    0.099292
  17 Br:   -0.945697
Sum of atomic charges:   -1.0000000

LOEWDIN ATOMIC CHARGES
----------------------
   0 C :   -0.060515
   1 C :   -0.088989
   2 C :   -0.063331
   3 C :   -0.051121
   4 C :   -0.068343
   5 Br:   -0.020326
   6 H :    0.028072
   7 H :    0.030919
   8 H :    0.009939
   9 H :    0.029057
  10 H :    0.031495
  11 H :    0.011632
  12 H :    0.030039
  13 H :    0.033627
  14 H :    0.030241
  15 H :    0.037964
  16 H :    0.037817
  17 Br:   -0.958175

  Mayer bond orders larger than 0.100000
B(  0-C ,  1-C ) :   1.0255 B(  0-C ,  6-H ) :   0.9650 B(  0-C ,  7-H ) :   0.9678
B(  0-C ,  8-H ) :   0.9517 B(  1-C ,  2-C ) :   1.0187 B(  1-C ,  3-C ) :   1.0278
B(  1-C ,  4-C ) :   0.9917 B(  2-C ,  9-H ) :   0.9657 B(  2-C , 10-H ) :   0.9692
B(  2-C , 11-H ) :   0.9525 B(  3-C , 12-H ) :   0.9646 B(  3-C , 13-H ) :   0.9633
B(  3-C , 14-H ) :   0.9661 B(  4-C ,  5-Br) :   0.9862 B(  4-C , 15-H ) :   0.9471
B(  4-C , 16-H ) :   0.9475

Dispersion correction           -0.016179322
FINAL SINGLE POINT ENERGY     -5344.063478887015

DIPOLE MOMENT
-------------
                                X             Y             Z
Electronic contribution:     29.26512      23.06327      16.16633
Nuclear contribution   :    -31.11638     -25.03200     -21.29439
                        -----------------------------------------
Total Dipole Moment    :     -1.85126      -1.96873      -5.12806
                        -----------------------------------------
Magnitude (a.u.)       :      5.79655
Magnitude (Debye)      :     14.73367

Rotational constants in cm-1:     0.038975     0.014589     0.011435
Rotational constants in MHz :  1168.432498   437.367788   342.806249

                             ****ORCA TERMINATED NORMALLY****
TOTAL RUN TIME: 0 days 0 hours 4 minutes 58 seconds 44 msec
