                         Program Version 4.2.1 -  RELEASE  -
|  1> ! Opt PBE0 RIJCOSX D3BJ def2-SVP def2/J CPCM(Acetone)
|  2> %cpcm
|  3> surfacetype vdw_gaussian
|  4> end
|  5> %geom MaxIter 100 end
|  6> %output
|  7> xyzfile=True
|  8> end
|  9> %scf
| 10> maxiter 250
| 11> end
| 12> %output
| 13> Print[P_Hirshfeld] = 1
| 14> end
| 15> % maxcore
| 16> 4000
| 17> %pal nprocs 4
| 18> end
| 19> *xyz -1 1
| 20> C     1.40035  -0.50972  -0.82399
| 21> C     0.12001  -0.24478  -0.07013
| 22> C    -0.67977  -1.48890   0.23343
| 23> Br   -1.00360   1.03534  -1.10493
| 24> H     1.92408   0.42252  -1.07953
| 25> H     1.21397  -1.07795  -1.74831
| 26> H     2.04513  -1.09813  -0.15139
| 27> H     0.33930   0.29424   0.86032
| 28> H    -1.60790  -1.25470   0.77443
| 29> H    -0.05115  -2.11161   0.89102
| 30> H    -0.93269  -2.04436  -0.68285
| 31> Br    1.89382  -1.37812   2.74643
| 32> *
| 33>
| 34>                          ****END OF INPUT****
 Total Charge           Charge          ....   -1
 Multiplicity           Mult            ....    1
 Number of Electrons    NEL             ....   96
Dispersion correction           -0.009821161
FINAL SINGLE POINT ENERGY     -5265.582958334010
Dispersion correction            ... done
Dispersion correction           -0.009708477
FINAL SINGLE POINT ENERGY     -5265.583519771357
Dispersion correction            ... done
Dispersion correction           -0.009597140
FINAL SINGLE POINT ENERGY     -5265.583898095691
Dispersion correction            ... done
FINAL SINGLE POINT ENERGY     -5265.584115974295
FINAL SINGLE POINT ENERGY     -5265.584239793197
FINAL SINGLE POINT ENERGY     -5265.584315696927
FINAL SINGLE POINT ENERGY     -5265.584357506908
FINAL SINGLE POINT ENERGY     -5265.584359308303
FINAL SINGLE POINT ENERGY     -5265.584366694480
FINAL SINGLE POINT ENERGY     -5265.584383566706
FINAL SINGLE POINT ENERGY     -5265.584389391064
FINAL SINGLE POINT ENERGY     -5265.584400691611
Dispersion correction            ... done
Dispersion correction           -0.009106898
FINAL SINGLE POINT ENERGY     -5265.584404327427
Dispersion correction            ... done
Dispersion correction           -0.009108736
FINAL SINGLE POINT ENERGY     -5265.584404993353
Dispersion correction            ... done
                    ***********************HURRAY********************

CARTESIAN COORDINATES (ANGSTROEM)
---------------------------------
  C      1.386763   -0.500707   -0.851137
  C      0.102823   -0.237058   -0.100778
  C     -0.700691   -1.480013    0.203145
  Br    -1.018337    1.022725   -1.154344
  H      1.909407    0.432865   -1.102717
  H      1.198116   -1.062639   -1.778649
  H      2.045456   -1.100478   -0.202396
  H      0.305899    0.325322    0.820771
  H     -1.620909   -1.245085    0.756216
  H     -0.082559   -2.139002    0.834107
  H     -0.968498   -2.019647   -0.718152
  Br     2.104079   -1.452453    3.138433

 Multiplicity           Mult            ....    1
 Number of Electrons    NEL             ....   96
 Basis Dimension        Dim             ....  141

ORBITAL ENERGIES
----------------

  NO   OCC          E(Eh)            E(eV)
   0   2.0000    -483.168383    -13147.6801
   1   2.0000    -483.065003    -13144.8670
   2   2.0000     -62.604687     -1703.5601
   3   2.0000     -62.500092     -1700.7140
   4   2.0000     -56.393809     -1534.5535
   5   2.0000     -56.391657     -1534.4950
   6   2.0000     -56.391506     -1534.4909
   7   2.0000     -56.288046     -1531.6756
   8   2.0000     -56.288019     -1531.6749
   9   2.0000     -56.287667     -1531.6653
  10   2.0000     -10.284106      -279.8448
  11   2.0000     -10.223766      -278.2028
  12   2.0000     -10.222936      -278.1802
  13   2.0000      -8.749919      -238.0974
  14   2.0000      -8.643558      -235.2032
  15   2.0000      -6.563803      -178.6102
  16   2.0000      -6.552276      -178.2965
  17   2.0000      -6.552234      -178.2953
  18   2.0000      -6.450005      -175.5136
  19   2.0000      -6.449804      -175.5081
  20   2.0000      -6.449768      -175.5071
  21   2.0000      -2.649496       -72.0964
  22   2.0000      -2.646218       -72.0073
  23   2.0000      -2.646137       -72.0050
  24   2.0000      -2.636848       -71.7523
  25   2.0000      -2.636839       -71.7520
  26   2.0000      -2.536816       -69.0303
  27   2.0000      -2.536787       -69.0295
  28   2.0000      -2.536750       -69.0285
  29   2.0000      -2.536628       -69.0251
  30   2.0000      -2.536621       -69.0250
  31   2.0000      -0.839800       -22.8521
  32   2.0000      -0.742925       -20.2160
  33   2.0000      -0.699106       -19.0237
  34   2.0000      -0.652239       -17.7483
  35   2.0000      -0.579693       -15.7742
  36   2.0000      -0.473734       -12.8910
  37   2.0000      -0.451257       -12.2793
  38   2.0000      -0.424779       -11.5588
  39   2.0000      -0.393948       -10.7199
  40   2.0000      -0.361544        -9.8381
  41   2.0000      -0.361209        -9.8290
  42   2.0000      -0.336800        -9.1648
  43   2.0000      -0.281239        -7.6529
  44   2.0000      -0.281114        -7.6495
  45   2.0000      -0.215138        -5.8542
  46   2.0000      -0.214956        -5.8493
  47   2.0000      -0.214557        -5.8384
  48   0.0000       0.017067         0.4644
  49   0.0000       0.089843         2.4447
  50   0.0000       0.123107         3.3499
  51   0.0000       0.130192         3.5427
  52   0.0000       0.148733         4.0472

MULLIKEN ATOMIC CHARGES
-----------------------
   0 C :   -0.030454
   1 C :   -0.228822
   2 C :   -0.026781
   3 Br:   -0.203283
   4 H :    0.060600
   5 H :    0.055432
   6 H :    0.052081
   7 H :    0.089836
   8 H :    0.059979
   9 H :    0.050276
  10 H :    0.054242
  11 Br:   -0.933106
Sum of atomic charges:   -1.0000000

LOEWDIN ATOMIC CHARGES
----------------------
   0 C :   -0.082105
   1 C :   -0.071746
   2 C :   -0.082243
   3 Br:   -0.053853
   4 H :    0.034717
   5 H :    0.033814
   6 H :    0.033738
   7 H :    0.030954
   8 H :    0.034787
   9 H :    0.031910
  10 H :    0.033028
  11 Br:   -0.943000

  Mayer bond orders larger than 0.100000
B(  0-C ,  1-C ) :   1.0467 B(  0-C ,  4-H ) :   0.9639 B(  0-C ,  5-H ) :   0.9647
B(  0-C ,  6-H ) :   0.9460 B(  1-C ,  2-C ) :   1.0423 B(  1-C ,  3-Br) :   0.9633
B(  1-C ,  7-H ) :   0.9260 B(  2-C ,  8-H ) :   0.9651 B(  2-C ,  9-H ) :   0.9453
B(  2-C , 10-H ) :   0.9632

Dispersion correction           -0.009106789
FINAL SINGLE POINT ENERGY     -5265.584405641453

DIPOLE MOMENT
-------------
                                X             Y             Z
Electronic contribution:     -0.61539       7.68799       7.31891
Nuclear contribution   :     -1.60764      -6.41084     -10.96365
                        -----------------------------------------
Total Dipole Moment    :     -2.22303       1.27715      -3.64474
                        -----------------------------------------
Magnitude (a.u.)       :      4.45613
Magnitude (Debye)      :     11.32658

Rotational constants in cm-1:     0.157075     0.011641     0.011600
Rotational constants in MHz :  4708.985442   348.985849   347.761557

                             ****ORCA TERMINATED NORMALLY****
TOTAL RUN TIME: 0 days 0 hours 3 minutes 24 seconds 537 msec
