                         Program Version 4.2.1 -  RELEASE  -
|  1> ! Opt PBE0 RIJCOSX D3BJ def2-SVP def2/J CPCM(Acetone)
|  2> %cpcm
|  3> surfacetype vdw_gaussian
|  4> end
|  5> %geom MaxIter 100 end
|  6> %output
|  7> xyzfile=True
|  8> end
|  9> %scf
| 10> maxiter 250
| 11> end
| 12> %output
| 13> Print[P_Hirshfeld] = 1
| 14> end
| 15> % maxcore
| 16> 4000
| 17> %pal nprocs 4
| 18> end
| 19> *xyz -1 1
| 20> C     1.43687   0.02884   0.27949
| 21> C     0.36172   0.92270  -0.32358
| 22> C    -0.70278   1.29851   0.70157
| 23> C    -0.21977   0.37797  -1.61473
| 24> Br   -1.11899  -1.36188  -1.41611
| 25> H     1.88411   0.52002   1.15859
| 26> H     1.00233  -0.92786   0.61371
| 27> H     2.23180  -0.19640  -0.44853
| 28> H     0.85223   1.85889  -0.65616
| 29> H    -1.44651   1.99149   0.27740
| 30> H    -1.23839   0.40287   1.05671
| 31> H    -0.23019   1.77360   1.57521
| 32> H    -0.99013   1.04090  -2.02945
| 33> H     0.55604   0.20075  -2.37008
| 34> Br    2.15068   1.98962   3.53931
| 35> *
| 36>
| 37>                          ****END OF INPUT****
 Total Charge           Charge          ....   -1
 Multiplicity           Mult            ....    1
 Number of Electrons    NEL             ....  104
Dispersion correction           -0.012311048
FINAL SINGLE POINT ENERGY     -5304.821659091216
Dispersion correction            ... done
Dispersion correction           -0.012162201
FINAL SINGLE POINT ENERGY     -5304.821983980301
Dispersion correction            ... done
Dispersion correction           -0.012027163
FINAL SINGLE POINT ENERGY     -5304.822108437337
Dispersion correction            ... done
FINAL SINGLE POINT ENERGY     -5304.822097498903
FINAL SINGLE POINT ENERGY     -5304.822078044429
Dispersion correction            ... done
Dispersion correction           -0.011941975
FINAL SINGLE POINT ENERGY     -5304.822068276321
Dispersion correction            ... done
Dispersion correction           -0.011938076
FINAL SINGLE POINT ENERGY     -5304.822064564697
Dispersion correction            ... done
                    ***********************HURRAY********************

CARTESIAN COORDINATES (ANGSTROEM)
---------------------------------
  C      1.417003    0.000906    0.268498
  C      0.353822    0.912205   -0.329375
  C     -0.720316    1.276140    0.689603
  C     -0.218113    0.390974   -1.634153
  Br    -1.112014   -1.354983   -1.474769
  H      1.897766    0.491684    1.129231
  H      0.965943   -0.939681    0.624985
  H      2.194317   -0.254319   -0.468373
  H      0.852986    1.850537   -0.641672
  H     -1.475365    1.951351    0.256929
  H     -1.239979    0.374686    1.053251
  H     -0.266946    1.775254    1.560063
  H     -0.987755    1.060682   -2.038893
  H      0.562904    0.232740   -2.388310
  Br     2.304768    2.151844    3.736335

 Multiplicity           Mult            ....    1
 Number of Electrons    NEL             ....  104
 Basis Dimension        Dim             ....  165

ORBITAL ENERGIES
----------------

  NO   OCC          E(Eh)            E(eV)
   0   2.0000    -483.174039    -13147.8340
   1   2.0000    -483.064753    -13144.8602
   2   2.0000     -62.610092     -1703.7072
   3   2.0000     -62.499841     -1700.7071
   4   2.0000     -56.399243     -1534.7014
   5   2.0000     -56.397005     -1534.6405
   6   2.0000     -56.396934     -1534.6386
   7   2.0000     -56.287873     -1531.6709
   8   2.0000     -56.287752     -1531.6676
   9   2.0000     -56.287377     -1531.6574
  10   2.0000     -10.276482      -279.6373
  11   2.0000     -10.238338      -278.5994
  12   2.0000     -10.214134      -277.9407
  13   2.0000     -10.211849      -277.8785
  14   2.0000      -8.755335      -238.2448
  15   2.0000      -8.643280      -235.1956
  16   2.0000      -6.569540      -178.7663
  17   2.0000      -6.557606      -178.4415
  18   2.0000      -6.557395      -178.4358
  19   2.0000      -6.449783      -175.5075
  20   2.0000      -6.449578      -175.5019
  21   2.0000      -6.449386      -175.4967
  22   2.0000      -2.655072       -72.2482
  23   2.0000      -2.651857       -72.1607
  24   2.0000      -2.651627       -72.1544
  25   2.0000      -2.642004       -71.8926
  26   2.0000      -2.641998       -71.8924
  27   2.0000      -2.536602       -69.0245
  28   2.0000      -2.536569       -69.0235
  29   2.0000      -2.536457       -69.0205
  30   2.0000      -2.536308       -69.0164
  31   2.0000      -2.536277       -69.0156
  32   2.0000      -0.843263       -22.9464
  33   2.0000      -0.778182       -21.1754
  34   2.0000      -0.687177       -18.6990
  35   2.0000      -0.675480       -18.3808
  36   2.0000      -0.651999       -17.7418
  37   2.0000      -0.559225       -15.2173
  38   2.0000      -0.478301       -13.0152
  39   2.0000      -0.462871       -12.5954
  40   2.0000      -0.443349       -12.0642
  41   2.0000      -0.389346       -10.5946
  42   2.0000      -0.386925       -10.5288
  43   2.0000      -0.374880       -10.2010
  44   2.0000      -0.353490        -9.6190
  45   2.0000      -0.341500        -9.2927
  46   2.0000      -0.325066        -8.8455
  47   2.0000      -0.283948        -7.7266
  48   2.0000      -0.281774        -7.6675
  49   2.0000      -0.215035        -5.8514
  50   2.0000      -0.214633        -5.8405
  51   2.0000      -0.214478        -5.8362
  52   0.0000       0.022683         0.6172
  53   0.0000       0.074717         2.0332
  54   0.0000       0.121023         3.2932
  55   0.0000       0.123145         3.3509
  56   0.0000       0.137535         3.7425

MULLIKEN ATOMIC CHARGES
-----------------------
   0 C :   -0.038235
   1 C :   -0.195235
   2 C :   -0.047493
   3 C :   -0.068406
   4 Br:   -0.207713
   5 H :    0.021485
   6 H :    0.037027
   7 H :    0.042318
   8 H :    0.063682
   9 H :    0.046635
  10 H :    0.037715
  11 H :    0.028335
  12 H :    0.106370
  13 H :    0.105914
  14 Br:   -0.932400
Sum of atomic charges:   -1.0000000

LOEWDIN ATOMIC CHARGES
----------------------
   0 C :   -0.073126
   1 C :   -0.069604
   2 C :   -0.070934
   3 C :   -0.070711
   4 Br:   -0.034803
   5 H :    0.014022
   6 H :    0.021866
   7 H :    0.029132
   8 H :    0.047011
   9 H :    0.029995
  10 H :    0.023767
  11 H :    0.020268
  12 H :    0.039954
  13 H :    0.039881
  14 Br:   -0.946718

  Mayer bond orders larger than 0.100000
B(  0-C ,  1-C ) :   1.0561 B(  0-C ,  5-H ) :   0.9520 B(  0-C ,  6-H ) :   0.9613
B(  0-C ,  7-H ) :   0.9667 B(  1-C ,  2-C ) :   1.0573 B(  1-C ,  3-C ) :   1.0445
B(  1-C ,  8-H ) :   0.9096 B(  2-C ,  9-H ) :   0.9685 B(  2-C , 10-H ) :   0.9640
B(  2-C , 11-H ) :   0.9585 B(  3-C ,  4-Br) :   0.9665 B(  3-C , 12-H ) :   0.9478
B(  3-C , 13-H ) :   0.9465

Dispersion correction           -0.011933666
FINAL SINGLE POINT ENERGY     -5304.822060615297

DIPOLE MOMENT
-------------
                                X             Y             Z
Electronic contribution:      0.96511      -5.54390       8.73479
Nuclear contribution   :     -3.69209       3.46654     -14.02604
                        -----------------------------------------
Total Dipole Moment    :     -2.72698      -2.07736      -5.29124
                        -----------------------------------------
Magnitude (a.u.)       :      6.30469
Magnitude (Debye)      :     16.02525

Rotational constants in cm-1:     0.147561     0.007723     0.007677
Rotational constants in MHz :  4423.754054   231.528430   230.138064

                             ****ORCA TERMINATED NORMALLY****
TOTAL RUN TIME: 0 days 0 hours 2 minutes 10 seconds 149 msec
