                         Program Version 4.2.1 -  RELEASE  -
|  1> ! Opt PBE0 RIJCOSX D3BJ def2-SVP def2/J CPCM(Acetone)
|  2> %cpcm
|  3> surfacetype vdw_gaussian
|  4> end
|  5> %geom MaxIter 100 end
|  6> %output
|  7> xyzfile=True
|  8> end
|  9> %scf
| 10> maxiter 250
| 11> end
| 12> %output
| 13> Print[P_Hirshfeld] = 1
| 14> end
| 15> % maxcore
| 16> 4000
| 17> %pal nprocs 4
| 18> end
| 19> *xyz -1 1
| 20> C    -0.20654   1.46311  -2.33493
| 21> C    -0.61798   0.11360  -1.77392
| 22> C    -2.12861  -0.01058  -1.70772
| 23> C     0.00867  -1.04002  -2.53833
| 24> Br    0.06346   0.01308   0.11153
| 25> H    -0.57221   1.54850  -3.37276
| 26> H    -0.64614   2.28442  -1.75086
| 27> H     0.88682   1.58062  -2.34296
| 28> H    -2.54670   0.09243  -2.72387
| 29> H    -2.56670   0.77747  -1.07938
| 30> H    -2.43622  -0.98729  -1.30496
| 31> H    -0.25482  -2.00684  -2.08474
| 32> H     1.10507  -0.95549  -2.57079
| 33> H    -0.36811  -1.03757  -3.57541
| 34> Br    1.06485  -0.24457   3.17059
| 35> *
| 36>
| 37>                          ****END OF INPUT****
 Total Charge           Charge          ....   -1
 Multiplicity           Mult            ....    1
 Number of Electrons    NEL             ....  104
Dispersion correction           -0.012316052
FINAL SINGLE POINT ENERGY     -5304.822640359213
Dispersion correction            ... done
Dispersion correction           -0.012220358
FINAL SINGLE POINT ENERGY     -5304.823586318722
Dispersion correction            ... done
Dispersion correction           -0.012167656
FINAL SINGLE POINT ENERGY     -5304.823828583522
Dispersion correction            ... done
FINAL SINGLE POINT ENERGY     -5304.823894608755
FINAL SINGLE POINT ENERGY     -5304.823910268116
FINAL SINGLE POINT ENERGY     -5304.823915957866
FINAL SINGLE POINT ENERGY     -5304.823918136123
FINAL SINGLE POINT ENERGY     -5304.823920293199
FINAL SINGLE POINT ENERGY     -5304.823922392497
FINAL SINGLE POINT ENERGY     -5304.823930681969
FINAL SINGLE POINT ENERGY     -5304.823940777560
FINAL SINGLE POINT ENERGY     -5304.823935818551
FINAL SINGLE POINT ENERGY     -5304.823926027967
FINAL SINGLE POINT ENERGY     -5304.823900615844
FINAL SINGLE POINT ENERGY     -5304.823897662670
FINAL SINGLE POINT ENERGY     -5304.823915666121
FINAL SINGLE POINT ENERGY     -5304.823916163899
Dispersion correction            ... done
Dispersion correction           -0.012071523
FINAL SINGLE POINT ENERGY     -5304.823912413999
Dispersion correction            ... done
Dispersion correction           -0.012074269
FINAL SINGLE POINT ENERGY     -5304.823909611277
Dispersion correction            ... done
                    ***********************HURRAY********************

CARTESIAN COORDINATES (ANGSTROEM)
---------------------------------
  C     -0.229031    1.477546   -2.414771
  C     -0.612127    0.140622   -1.807477
  C     -2.117648   -0.001678   -1.695627
  C      0.012801   -1.029695   -2.546420
  Br     0.114569    0.099311    0.065219
  H     -0.617934    1.521788   -3.446227
  H     -0.668882    2.311386   -1.849384
  H      0.861984    1.607577   -2.451150
  H     -2.557394    0.046149   -2.706265
  H     -2.553138    0.809690   -1.096119
  H     -2.399981   -0.963083   -1.241941
  H     -0.229462   -1.983626   -2.055696
  H      1.106570   -0.932523   -2.608440
  H     -0.389865   -1.061933   -3.572792
  Br     1.064378   -0.450660    3.548581

 Multiplicity           Mult            ....    1
 Number of Electrons    NEL             ....  104
 Basis Dimension        Dim             ....  165

ORBITAL ENERGIES
----------------

  NO   OCC          E(Eh)            E(eV)
   0   2.0000    -483.161693    -13147.4981
   1   2.0000    -483.059252    -13144.7105
   2   2.0000     -62.597431     -1703.3627
   3   2.0000     -62.494560     -1700.5634
   4   2.0000     -56.386610     -1534.3577
   5   2.0000     -56.384328     -1534.2956
   6   2.0000     -56.384312     -1534.2951
   7   2.0000     -56.282419     -1531.5225
   8   2.0000     -56.282393     -1531.5218
   9   2.0000     -56.282377     -1531.5213
  10   2.0000     -10.289755      -279.9985
  11   2.0000     -10.224481      -278.2223
  12   2.0000     -10.224412      -278.2204
  13   2.0000     -10.224039      -278.2102
  14   2.0000      -8.742388      -237.8925
  15   2.0000      -8.637973      -235.0512
  16   2.0000      -6.556403      -178.4088
  17   2.0000      -6.544607      -178.0878
  18   2.0000      -6.544597      -178.0875
  19   2.0000      -6.444559      -175.3654
  20   2.0000      -6.444141      -175.3540
  21   2.0000      -6.444133      -175.3538
  22   2.0000      -2.641891       -71.8895
  23   2.0000      -2.638738       -71.8037
  24   2.0000      -2.638712       -71.8030
  25   2.0000      -2.629181       -71.5437
  26   2.0000      -2.629164       -71.5432
  27   2.0000      -2.531336       -68.8812
  28   2.0000      -2.531256       -68.8790
  29   2.0000      -2.531238       -68.8785
  30   2.0000      -2.530913       -68.8696
  31   2.0000      -2.530904       -68.8694
  32   2.0000      -0.852984       -23.2109
  33   2.0000      -0.742797       -20.2125
  34   2.0000      -0.701443       -19.0872
  35   2.0000      -0.700417       -19.0593
  36   2.0000      -0.647276       -17.6133
  37   2.0000      -0.547312       -14.8931
  38   2.0000      -0.468570       -12.7504
  39   2.0000      -0.454646       -12.3715
  40   2.0000      -0.453961       -12.3529
  41   2.0000      -0.399680       -10.8759
  42   2.0000      -0.398499       -10.8437
  43   2.0000      -0.373082       -10.1521
  44   2.0000      -0.352592        -9.5945
  45   2.0000      -0.351899        -9.5757
  46   2.0000      -0.328527        -8.9397
  47   2.0000      -0.275817        -7.5054
  48   2.0000      -0.275443        -7.4952
  49   2.0000      -0.210477        -5.7274
  50   2.0000      -0.210294        -5.7224
  51   2.0000      -0.208405        -5.6710
  52   0.0000       0.016582         0.4512
  53   0.0000       0.073277         1.9940
  54   0.0000       0.132102         3.5947
  55   0.0000       0.132875         3.6157
  56   0.0000       0.138262         3.7623

MULLIKEN ATOMIC CHARGES
-----------------------
   0 C :    0.026111
   1 C :   -0.449617
   2 C :    0.024880
   3 C :    0.028041
   4 Br:   -0.162110
   5 H :    0.055839
   6 H :    0.053438
   7 H :    0.057377
   8 H :    0.056601
   9 H :    0.056253
  10 H :    0.054369
  11 H :    0.054773
  12 H :    0.057965
  13 H :    0.055011
  14 Br:   -0.968930
Sum of atomic charges:   -1.0000000

LOEWDIN ATOMIC CHARGES
----------------------
   0 C :   -0.069808
   1 C :   -0.099258
   2 C :   -0.069619
   3 C :   -0.070110
   4 Br:   -0.038249
   5 H :    0.039290
   6 H :    0.033365
   7 H :    0.033414
   8 H :    0.039093
   9 H :    0.033134
  10 H :    0.033252
  11 H :    0.033273
  12 H :    0.033802
  13 H :    0.038893
  14 Br:   -0.970472

  Mayer bond orders larger than 0.100000
B(  0-C ,  1-C ) :   1.0066 B(  0-C ,  5-H ) :   0.9532 B(  0-C ,  6-H ) :   0.9642
B(  0-C ,  7-H ) :   0.9647 B(  1-C ,  2-C ) :   1.0040 B(  1-C ,  3-C ) :   1.0073
B(  1-C ,  4-Br) :   0.9560 B(  2-C ,  8-H ) :   0.9548 B(  2-C ,  9-H ) :   0.9657
B(  2-C , 10-H ) :   0.9659 B(  3-C , 11-H ) :   0.9642 B(  3-C , 12-H ) :   0.9654
B(  3-C , 13-H ) :   0.9531

Dispersion correction           -0.012072006
FINAL SINGLE POINT ENERGY     -5304.823912722225

DIPOLE MOMENT
-------------
                                X             Y             Z
Electronic contribution:     13.63671      -2.95709      39.50785
Nuclear contribution   :    -15.53903       3.61618     -45.53818
                        -----------------------------------------
Total Dipole Moment    :     -1.90232       0.65908      -6.03033
                        -----------------------------------------
Magnitude (a.u.)       :      6.35753
Magnitude (Debye)      :     16.15954

Rotational constants in cm-1:     0.148884     0.012654     0.012637
Rotational constants in MHz :  4463.438201   379.362829   378.861706

                             ****ORCA TERMINATED NORMALLY****
TOTAL RUN TIME: 0 days 0 hours 5 minutes 26 seconds 573 msec
