                         Program Version 4.2.1 -  RELEASE  -
|  1> ! Opt PBE0 RIJCOSX D3BJ def2-SVP def2/J CPCM(Acetone)
|  2> %geom MaxIter 100 end
|  3> %output
|  4> xyzfile=True
|  5> end
|  6> %scf
|  7> maxiter 250
|  8> end
|  9> %output
| 10> Print[P_Hirshfeld] = 1
| 11> end
| 12> % maxcore
| 13> 4000
| 14> %pal nprocs 4
| 15> end
| 16> *xyz -1 1
| 17> C     1.40035  -0.50972  -0.82399
| 18> C     0.12001  -0.24478  -0.07013
| 19> C    -0.67977  -1.48890   0.23343
| 20> Br   -1.00360   1.03534  -1.10493
| 21> H     1.92408   0.42252  -1.07953
| 22> H     1.21397  -1.07795  -1.74831
| 23> H     2.04513  -1.09813  -0.15139
| 24> H     0.33930   0.29424   0.86032
| 25> H    -1.60790  -1.25470   0.77443
| 26> H    -0.05115  -2.11161   0.89102
| 27> H    -0.93269  -2.04436  -0.68285
| 28> Cl    1.89382  -1.37812   2.74643
| 29>
| 30> *
| 31>
| 32>                          ****END OF INPUT****
 Total Charge           Charge          ....   -1
 Multiplicity           Mult            ....    1
 Number of Electrons    NEL             ....   78
Dispersion correction           -0.009292240
FINAL SINGLE POINT ENERGY     -3151.926831530861
Dispersion correction            ... done
Dispersion correction           -0.009389117
FINAL SINGLE POINT ENERGY     -3151.926861360975
Dispersion correction            ... done
Dispersion correction           -0.009435788
FINAL SINGLE POINT ENERGY     -3151.926823086965
Dispersion correction            ... done
FINAL SINGLE POINT ENERGY     -3151.926834611758
FINAL SINGLE POINT ENERGY     -3151.926862370718
FINAL SINGLE POINT ENERGY     -3151.926871023828
FINAL SINGLE POINT ENERGY     -3151.926903576035
FINAL SINGLE POINT ENERGY     -3151.926917585263
FINAL SINGLE POINT ENERGY     -3151.926950826108
FINAL SINGLE POINT ENERGY     -3151.926969080632
FINAL SINGLE POINT ENERGY     -3151.927398719155
FINAL SINGLE POINT ENERGY     -3151.927389052431
FINAL SINGLE POINT ENERGY     -3151.927375418689
FINAL SINGLE POINT ENERGY     -3151.927360818412
FINAL SINGLE POINT ENERGY     -3151.927358186229
FINAL SINGLE POINT ENERGY     -3151.927363903345
FINAL SINGLE POINT ENERGY     -3151.927366880333
Dispersion correction            ... done
Dispersion correction           -0.009137462
FINAL SINGLE POINT ENERGY     -3151.927373161521
Dispersion correction            ... done
Dispersion correction           -0.009135380
FINAL SINGLE POINT ENERGY     -3151.927374447961
Dispersion correction            ... done
                    ***********************HURRAY********************

CARTESIAN COORDINATES (ANGSTROEM)
---------------------------------
  C      1.404207   -0.447466   -0.708357
  C      0.038452   -0.173397   -0.127680
  C     -0.705555   -1.415355    0.298678
  Br    -1.049665    0.853786   -1.452986
  H      1.907039    0.477400   -1.025613
  H      1.336524   -1.125962   -1.573112
  H      1.992998   -0.937596    0.089779
  H      0.106833    0.534982    0.709428
  H     -1.678604   -1.173683    0.751225
  H     -0.069712   -1.916795    1.051348
  H     -0.866269   -2.097115   -0.550611
  Cl     2.245303   -2.034968    2.382402

 Multiplicity           Mult            ....    1
 Number of Electrons    NEL             ....   78
 Basis Dimension        Dim             ....  127

ORBITAL ENERGIES
----------------

  NO   OCC          E(Eh)            E(eV)
   0   2.0000    -483.165237    -13147.5945
   1   2.0000    -101.520906     -2762.5243
   2   2.0000     -62.601510     -1703.4737
   3   2.0000     -56.390580     -1534.4657
   4   2.0000     -56.388519     -1534.4096
   5   2.0000     -56.388345     -1534.4049
   6   2.0000     -10.280801      -279.7548
   7   2.0000     -10.215489      -277.9776
   8   2.0000     -10.213031      -277.9107
   9   2.0000      -9.367993      -254.9160
  10   2.0000      -8.746703      -238.0099
  11   2.0000      -7.103809      -193.3045
  12   2.0000      -7.103740      -193.3026
  13   2.0000      -7.103481      -193.2955
  14   2.0000      -6.560349      -178.5162
  15   2.0000      -6.549190      -178.2125
  16   2.0000      -6.549137      -178.2111
  17   2.0000      -2.646036       -72.0023
  18   2.0000      -2.642951       -71.9183
  19   2.0000      -2.642834       -71.9152
  20   2.0000      -2.633837       -71.6703
  21   2.0000      -2.633811       -71.6696
  22   2.0000      -0.833895       -22.6914
  23   2.0000      -0.739229       -20.1154
  24   2.0000      -0.691022       -18.8037
  25   2.0000      -0.670002       -18.2317
  26   2.0000      -0.573699       -15.6112
  27   2.0000      -0.466323       -12.6893
  28   2.0000      -0.446987       -12.1631
  29   2.0000      -0.416445       -11.3320
  30   2.0000      -0.385191       -10.4816
  31   2.0000      -0.356225        -9.6934
  32   2.0000      -0.355815        -9.6822
  33   2.0000      -0.330831        -9.0024
  34   2.0000      -0.279114        -7.5951
  35   2.0000      -0.278925        -7.5899
  36   2.0000      -0.212656        -5.7867
  37   2.0000      -0.212144        -5.7727
  38   2.0000      -0.209148        -5.6912
  39   0.0000       0.019022         0.5176
  40   0.0000       0.100486         2.7344
  41   0.0000       0.125923         3.4265
  42   0.0000       0.135070         3.6754
  43   0.0000       0.155337         4.2269

MULLIKEN ATOMIC CHARGES
-----------------------
   0 C :   -0.033787
   1 C :   -0.233740
   2 C :   -0.027457
   3 Br:   -0.223087
   4 H :    0.049678
   5 H :    0.047565
   6 H :    0.029877
   7 H :    0.100192
   8 H :    0.050244
   9 H :    0.029245
  10 H :    0.050683
  11 Cl:   -0.839415
Sum of atomic charges:   -1.0000000

LOEWDIN ATOMIC CHARGES
----------------------
   0 C :   -0.093499
   1 C :   -0.065567
   2 C :   -0.089509
   3 Br:   -0.075582
   4 H :    0.028890
   5 H :    0.029337
   6 H :    0.012275
   7 H :    0.037326
   8 H :    0.030291
   9 H :    0.016770
  10 H :    0.030449
  11 Cl:   -0.861182

  Mayer bond orders larger than 0.100000
B(  0-C ,  1-C ) :   1.0488 B(  0-C ,  4-H ) :   0.9624 B(  0-C ,  5-H ) :   0.9645
B(  0-C ,  6-H ) :   0.9079 B(  1-C ,  2-C ) :   1.0474 B(  1-C ,  3-Br) :   0.9504
B(  1-C ,  7-H ) :   0.9323 B(  2-C ,  8-H ) :   0.9629 B(  2-C ,  9-H ) :   0.9168
B(  2-C , 10-H ) :   0.9637 B(  6-H , 11-Cl) :   0.1758 B(  9-H , 11-Cl) :   0.1549

Dispersion correction           -0.009137392
FINAL SINGLE POINT ENERGY     -3151.927376439294

DIPOLE MOMENT
-------------
                                X             Y             Z
Electronic contribution:    -12.57303      14.44776     -12.42475
Nuclear contribution   :      9.48063     -11.93762       8.78957
                        -----------------------------------------
Total Dipole Moment    :     -3.09240       2.51014      -3.63518
                        -----------------------------------------
Magnitude (a.u.)       :      5.39243
Magnitude (Debye)      :     13.70646

Rotational constants in cm-1:     0.238877     0.019489     0.018658
Rotational constants in MHz :  7161.342861   584.265942   559.350211

                             ****ORCA TERMINATED NORMALLY****
TOTAL RUN TIME: 0 days 0 hours 7 minutes 30 seconds 322 msec
