                         Program Version 4.2.1 -  RELEASE  -
|  1> ! Opt PBE0 RIJCOSX D3BJ def2-SVP def2/J CPCM(Acetone)
|  2> %geom MaxIter 100 end
|  3> %output
|  4> xyzfile=True
|  5> end
|  6> %scf
|  7> maxiter 250
|  8> end
|  9> %output
| 10> Print[P_Hirshfeld] = 1
| 11> end
| 12> % maxcore
| 13> 4000
| 14> %pal nprocs 4
| 15> end
| 16> *xyz -1 1
| 17> C    -0.98634   0.79438  -2.40660
| 18> Br   -1.60436  -0.96719  -1.87830
| 19> H    -1.22816   1.49042  -1.59632
| 20> H    -1.50175   1.07172  -3.33226
| 21> H     0.09711   0.73683  -2.55875
| 22> I     1.12443   0.50760   1.46989
| 23> *
| 24>
| 25>                          ****END OF INPUT****
 Total Charge           Charge          ....   -1
 Multiplicity           Mult            ....    1
 Number of Electrons    NEL             ....   70
Dispersion correction           -0.003354513
FINAL SINGLE POINT ENERGY     -2911.272112301934
Dispersion correction            ... done
Dispersion correction           -0.003450730
FINAL SINGLE POINT ENERGY     -2911.272063097124
Dispersion correction            ... done
Dispersion correction           -0.003546449
FINAL SINGLE POINT ENERGY     -2911.272017078256
Dispersion correction            ... done
FINAL SINGLE POINT ENERGY     -2911.271980059921
FINAL SINGLE POINT ENERGY     -2911.272004989217
FINAL SINGLE POINT ENERGY     -2911.272145757242
FINAL SINGLE POINT ENERGY     -2911.272235156334
FINAL SINGLE POINT ENERGY     -2911.272304708541
Dispersion correction            ... done
Dispersion correction           -0.003613782
FINAL SINGLE POINT ENERGY     -2911.272323102729
Dispersion correction            ... done
Dispersion correction           -0.003620999
FINAL SINGLE POINT ENERGY     -2911.272350034825
Dispersion correction            ... done
                    ***********************HURRAY********************

CARTESIAN COORDINATES (ANGSTROEM)
---------------------------------
  C     -0.966276    0.774910   -2.345341
  Br    -1.675412   -0.989248   -1.965830
  H     -1.231479    1.425702   -1.506203
  H     -1.414116    1.122126   -3.282226
  H      0.122029    0.684734   -2.427760
  I      1.066185    0.615536    1.225020

 Multiplicity           Mult            ....    1
 Number of Electrons    NEL             ....   70
 Basis Dimension        Dim             ....   87

ORBITAL ENERGIES
----------------

  NO   OCC          E(Eh)            E(eV)
   0   2.0000    -483.174355    -13147.8426
   1   2.0000     -62.610682     -1703.7233
   2   2.0000     -56.399926     -1534.7200
   3   2.0000     -56.397523     -1534.6546
   4   2.0000     -56.397445     -1534.6525
   5   2.0000     -10.269245      -279.4404
   6   2.0000      -8.756099      -238.2656
   7   2.0000      -6.799992      -185.0372
   8   2.0000      -6.570815      -178.8010
   9   2.0000      -6.558086      -178.4546
  10   2.0000      -6.557918      -178.4500
  11   2.0000      -4.807571      -130.8206
  12   2.0000      -4.807507      -130.8189
  13   2.0000      -4.807329      -130.8141
  14   2.0000      -2.656290       -72.2813
  15   2.0000      -2.652796       -72.1862
  16   2.0000      -2.652669       -72.1828
  17   2.0000      -2.642303       -71.9007
  18   2.0000      -2.642289       -71.9004
  19   2.0000      -1.834769       -49.9266
  20   2.0000      -1.834764       -49.9265
  21   2.0000      -1.834600       -49.9220
  22   2.0000      -1.834525       -49.9200
  23   2.0000      -1.834483       -49.9188
  24   2.0000      -0.814073       -22.1520
  25   2.0000      -0.666107       -18.1257
  26   2.0000      -0.605076       -16.4649
  27   2.0000      -0.438639       -11.9360
  28   2.0000      -0.436129       -11.8677
  29   2.0000      -0.389033       -10.5861
  30   2.0000      -0.282428        -7.6853
  31   2.0000      -0.281851        -7.6696
  32   2.0000      -0.214130        -5.8268
  33   2.0000      -0.213588        -5.8120
  34   2.0000      -0.210777        -5.7355
  35   0.0000       0.024935         0.6785
  36   0.0000       0.106940         2.9100
  37   0.0000       0.148837         4.0501
  38   0.0000       0.149593         4.0706
  39   0.0000       0.303798         8.2668

MULLIKEN ATOMIC CHARGES
-----------------------
   0 C :   -0.122032
   1 Br:   -0.221944
   2 H :    0.110710
   3 H :    0.108051
   4 H :    0.111809
   5 I :   -0.986594
Sum of atomic charges:   -1.0000000

LOEWDIN ATOMIC CHARGES
----------------------
   0 C :   -0.108236
   1 Br:   -0.029946
   2 H :    0.039248
   3 H :    0.040687
   4 H :    0.040878
   5 I :   -0.982631

  Mayer bond orders larger than 0.100000
B(  0-C ,  1-Br) :   0.9817 B(  0-C ,  2-H ) :   0.9667 B(  0-C ,  3-H ) :   0.9680
B(  0-C ,  4-H ) :   0.9677

Dispersion correction           -0.003617375
FINAL SINGLE POINT ENERGY     -2911.272349150472

DIPOLE MOMENT
-------------
                                X             Y             Z
Electronic contribution:     66.95256      28.06860      87.85555
Nuclear contribution   :    -68.69293     -28.29428     -90.59350
                        -----------------------------------------
Total Dipole Moment    :     -1.74037      -0.22567      -2.73795
                        -----------------------------------------
Magnitude (a.u.)       :      3.25211
Magnitude (Debye)      :      8.26620

Rotational constants in cm-1:     0.362036     0.016017     0.015384
Rotational constants in MHz : 10853.562315   480.179651   461.202284

                             ****ORCA TERMINATED NORMALLY****
TOTAL RUN TIME: 0 days 0 hours 1 minutes 52 seconds 557 msec
