                         Program Version 4.2.1 -  RELEASE  -
|  1> ! Opt PBE0 RIJCOSX D3BJ def2-SVP def2/J CPCM(Acetone)
|  2> %geom MaxIter 100 end
|  3> %output
|  4> xyzfile=True
|  5> end
|  6> %scf
|  7> maxiter 250
|  8> end
|  9> %output
| 10> Print[P_Hirshfeld] = 1
| 11> end
| 12> % maxcore
| 13> 4000
| 14> %pal nprocs 4
| 15> end
| 16> *xyz -1 1
| 17> C    -2.76174   0.29657   0.67652
| 18> C    -1.75988   0.20079  -0.46559
| 19> C    -0.37659   0.60811  -0.01154
| 20> Br    0.94746   0.31038  -1.42846
| 21> H    -3.74280  -0.09076   0.36143
| 22> H    -2.40460  -0.28480   1.54129
| 23> H    -2.89880   1.33796   1.00925
| 24> H    -1.71994  -0.83672  -0.83623
| 25> H    -2.07518   0.82564  -1.31745
| 26> H    -0.03844   0.01903   0.85706
| 27> H    -0.30906   1.67830   0.22881
| 28> Cl   -0.10101  -1.14933   3.09948
| 29> *
| 30>
| 31>                          ****END OF INPUT****
 Total Charge           Charge          ....   -1
 Multiplicity           Mult            ....    1
 Number of Electrons    NEL             ....   78
Dispersion correction           -0.008602570
FINAL SINGLE POINT ENERGY     -3151.922878039881
Dispersion correction            ... done
Dispersion correction           -0.008712426
FINAL SINGLE POINT ENERGY     -3151.922911328850
Dispersion correction            ... done
Dispersion correction           -0.008710711
FINAL SINGLE POINT ENERGY     -3151.922925164661
Dispersion correction            ... done
FINAL SINGLE POINT ENERGY     -3151.922936252928
FINAL SINGLE POINT ENERGY     -3151.922944084747
FINAL SINGLE POINT ENERGY     -3151.922951291004
FINAL SINGLE POINT ENERGY     -3151.922958443091
FINAL SINGLE POINT ENERGY     -3151.922969526904
FINAL SINGLE POINT ENERGY     -3151.922953585398
FINAL SINGLE POINT ENERGY     -3151.922957101055
FINAL SINGLE POINT ENERGY     -3151.922958388393
FINAL SINGLE POINT ENERGY     -3151.922961299441
FINAL SINGLE POINT ENERGY     -3151.922967760003
FINAL SINGLE POINT ENERGY     -3151.922969561411
Dispersion correction            ... done
Dispersion correction           -0.008731018
FINAL SINGLE POINT ENERGY     -3151.922978336572
Dispersion correction            ... done
Dispersion correction           -0.008734328
FINAL SINGLE POINT ENERGY     -3151.922980457601
Dispersion correction            ... done
                    ***********************HURRAY********************

CARTESIAN COORDINATES (ANGSTROEM)
---------------------------------
  C     -2.753635    0.298914    0.687569
  C     -1.754326    0.193377   -0.456018
  C     -0.375467    0.618871   -0.006230
  Br     0.953697    0.307924   -1.417822
  H     -3.733641   -0.098260    0.380671
  H     -2.383953   -0.268694    1.556582
  H     -2.896541    1.344484    1.004946
  H     -1.705538   -0.850622   -0.807079
  H     -2.075763    0.799853   -1.319003
  H     -0.039104    0.041471    0.871462
  H     -0.315154    1.693700    0.214340
  Cl    -0.161155   -1.165849    3.005153

 Multiplicity           Mult            ....    1
 Number of Electrons    NEL             ....   78
 Basis Dimension        Dim             ....  127

ORBITAL ENERGIES
----------------

  NO   OCC          E(Eh)            E(eV)
   0   2.0000    -483.168320    -13147.6784
   1   2.0000    -101.520738     -2762.5197
   2   2.0000     -62.604719     -1703.5610
   3   2.0000     -56.393840     -1534.5544
   4   2.0000     -56.391674     -1534.4955
   5   2.0000     -56.391560     -1534.4923
   6   2.0000     -10.261532      -279.2305
   7   2.0000     -10.224990      -278.2361
   8   2.0000     -10.210024      -277.8289
   9   2.0000      -9.367917      -254.9140
  10   2.0000      -8.750041      -238.1007
  11   2.0000      -7.103814      -193.3046
  12   2.0000      -7.103606      -193.2989
  13   2.0000      -7.103357      -193.2922
  14   2.0000      -6.564075      -178.6176
  15   2.0000      -6.552365      -178.2989
  16   2.0000      -6.552246      -178.2957
  17   2.0000      -2.649745       -72.1032
  18   2.0000      -2.646368       -72.0113
  19   2.0000      -2.646308       -72.0097
  20   2.0000      -2.636860       -71.7526
  21   2.0000      -2.636849       -71.7523
  22   2.0000      -0.826334       -22.4857
  23   2.0000      -0.761537       -20.7225
  24   2.0000      -0.670716       -18.2511
  25   2.0000      -0.658912       -17.9299
  26   2.0000      -0.585379       -15.9290
  27   2.0000      -0.474951       -12.9241
  28   2.0000      -0.434609       -11.8263
  29   2.0000      -0.412553       -11.2261
  30   2.0000      -0.396552       -10.7907
  31   2.0000      -0.351994        -9.5783
  32   2.0000      -0.343305        -9.3418
  33   2.0000      -0.332747        -9.0545
  34   2.0000      -0.279616        -7.6087
  35   2.0000      -0.278838        -7.5876
  36   2.0000      -0.213012        -5.7963
  37   2.0000      -0.212116        -5.7720
  38   2.0000      -0.208744        -5.6802
  39   0.0000       0.026902         0.7320
  40   0.0000       0.099640         2.7113
  41   0.0000       0.123708         3.3663
  42   0.0000       0.137283         3.7357
  43   0.0000       0.152857         4.1594

MULLIKEN ATOMIC CHARGES
-----------------------
   0 C :   -0.089402
   1 C :   -0.080850
   2 C :   -0.117246
   3 Br:   -0.223701
   4 H :    0.044116
   5 H :    0.016064
   6 H :    0.039710
   7 H :    0.046613
   8 H :    0.048012
   9 H :    0.059712
  10 H :    0.094384
  11 Cl:   -0.837412
Sum of atomic charges:   -1.0000000

LOEWDIN ATOMIC CHARGES
----------------------
   0 C :   -0.079574
   1 C :   -0.070477
   2 C :   -0.088808
   3 Br:   -0.053689
   4 H :    0.030238
   5 H :    0.008182
   6 H :    0.026816
   7 H :    0.028664
   8 H :    0.026342
   9 H :   -0.003138
  10 H :    0.033844
  11 Cl:   -0.858400

  Mayer bond orders larger than 0.100000
B(  0-C ,  1-C ) :   1.0887 B(  0-C ,  4-H ) :   0.9664 B(  0-C ,  5-H ) :   0.9435
B(  0-C ,  6-H ) :   0.9712 B(  1-C ,  2-C ) :   1.0410 B(  1-C ,  7-H ) :   0.9479
B(  1-C ,  8-H ) :   0.9531 B(  2-C ,  3-Br) :   0.9653 B(  2-C ,  9-H ) :   0.8920
B(  2-C , 10-H ) :   0.9481 B(  5-H , 11-Cl) :   0.1306 B(  9-H , 11-Cl) :   0.2120

Dispersion correction           -0.008732973
FINAL SINGLE POINT ENERGY     -3151.922982910003

DIPOLE MOMENT
-------------
                                X             Y             Z
Electronic contribution:     20.67260       0.83582     -15.23618
Nuclear contribution   :    -21.01197       1.18516      10.86099
                        -----------------------------------------
Total Dipole Moment    :     -0.33937       2.02097      -4.37519
                        -----------------------------------------
Magnitude (a.u.)       :      4.83133
Magnitude (Debye)      :     12.28027

Rotational constants in cm-1:     0.083294     0.027603     0.021274
Rotational constants in MHz :  2497.086347   827.525145   637.783977

                             ****ORCA TERMINATED NORMALLY****
TOTAL RUN TIME: 0 days 0 hours 3 minutes 16 seconds 809 msec
