                         Program Version 4.2.1 -  RELEASE  -
|  1> ! Opt PBE0 RIJCOSX D3BJ def2-SVP def2/J CPCM(Acetone)
|  2> %cpcm
|  3> surfacetype vdw_gaussian
|  4> end
|  5> %geom MaxIter 100 end
|  6> %output
|  7> xyzfile=True
|  8> end
|  9> %scf
| 10> maxiter 250
| 11> end
| 12> %output
| 13> Print[P_Hirshfeld] = 1
| 14> end
| 15> % maxcore
| 16> 4000
| 17> %pal nprocs 4
| 18> end
| 19> *xyz -1 1
| 20> C    -2.76174   0.29657   0.67652
| 21> C    -1.75988   0.20079  -0.46559
| 22> C    -0.37659   0.60811  -0.01154
| 23> Br    0.94746   0.31038  -1.42846
| 24> H    -3.74280  -0.09076   0.36143
| 25> H    -2.40460  -0.28480   1.54129
| 26> H    -2.89880   1.33796   1.00925
| 27> H    -1.71994  -0.83672  -0.83623
| 28> H    -2.07518   0.82564  -1.31745
| 29> H    -0.03844   0.01903   0.85706
| 30> H    -0.30906   1.67830   0.22881
| 31> Br   -0.10101  -1.14933   3.09948
| 32> *
| 33>
| 34>                          ****END OF INPUT****
 Total Charge           Charge          ....   -1
 Multiplicity           Mult            ....    1
 Number of Electrons    NEL             ....   96
Dispersion correction           -0.009107997
FINAL SINGLE POINT ENERGY     -5265.579126239033
Dispersion correction            ... done
Dispersion correction           -0.008925012
FINAL SINGLE POINT ENERGY     -5265.579825255914
Dispersion correction            ... done
Dispersion correction           -0.008763775
FINAL SINGLE POINT ENERGY     -5265.580099101644
Dispersion correction            ... done
FINAL SINGLE POINT ENERGY     -5265.580142865469
FINAL SINGLE POINT ENERGY     -5265.580128260680
FINAL SINGLE POINT ENERGY     -5265.580116214843
FINAL SINGLE POINT ENERGY     -5265.580081537599
FINAL SINGLE POINT ENERGY     -5265.579990726814
FINAL SINGLE POINT ENERGY     -5265.579956326258
FINAL SINGLE POINT ENERGY     -5265.580005580477
FINAL SINGLE POINT ENERGY     -5265.580024978420
Dispersion correction            ... done
Dispersion correction           -0.008584385
FINAL SINGLE POINT ENERGY     -5265.580022945234
Dispersion correction            ... done
Dispersion correction           -0.008584693
FINAL SINGLE POINT ENERGY     -5265.580020092597
Dispersion correction            ... done
                    ***********************HURRAY********************

CARTESIAN COORDINATES (ANGSTROEM)
---------------------------------
  C     -2.834436    0.341563    0.607910
  C     -1.779408    0.196706   -0.479556
  C     -0.413262    0.607658    0.020752
  Br     0.974796    0.261610   -1.318115
  H     -3.820070    0.026413    0.232611
  H     -2.585391   -0.278333    1.482919
  H     -2.921445    1.384331    0.952884
  H     -1.738885   -0.850883   -0.819679
  H     -2.050074    0.802077   -1.359964
  H     -0.100679    0.042891    0.912855
  H     -0.350135    1.683676    0.232619
  Br     0.378408   -1.302539    3.249334

 Multiplicity           Mult            ....    1
 Number of Electrons    NEL             ....   96
 Basis Dimension        Dim             ....  141

ORBITAL ENERGIES
----------------

  NO   OCC          E(Eh)            E(eV)
   0   2.0000    -483.170669    -13147.7423
   1   2.0000    -483.065636    -13144.8842
   2   2.0000     -62.607059     -1703.6247
   3   2.0000     -62.500785     -1700.7328
   4   2.0000     -56.396226     -1534.6193
   5   2.0000     -56.393979     -1534.5582
   6   2.0000     -56.393871     -1534.5552
   7   2.0000     -56.288785     -1531.6957
   8   2.0000     -56.288706     -1531.6936
   9   2.0000     -56.288368     -1531.6844
  10   2.0000     -10.268531      -279.4209
  11   2.0000     -10.229560      -278.3605
  12   2.0000     -10.218412      -278.0571
  13   2.0000      -8.752407      -238.1651
  14   2.0000      -8.644227      -235.2214
  15   2.0000      -6.566638      -178.6873
  16   2.0000      -6.554644      -178.3609
  17   2.0000      -6.554486      -178.3566
  18   2.0000      -6.450807      -175.5354
  19   2.0000      -6.450482      -175.5265
  20   2.0000      -6.450300      -175.5216
  21   2.0000      -2.652285       -72.1723
  22   2.0000      -2.648827       -72.0782
  23   2.0000      -2.648715       -72.0752
  24   2.0000      -2.639066       -71.8126
  25   2.0000      -2.639052       -71.8123
  26   2.0000      -2.537597       -69.0515
  27   2.0000      -2.537558       -69.0505
  28   2.0000      -2.537441       -69.0473
  29   2.0000      -2.537195       -69.0406
  30   2.0000      -2.537170       -69.0399
  31   2.0000      -0.831143       -22.6165
  32   2.0000      -0.766235       -20.8503
  33   2.0000      -0.665489       -18.1089
  34   2.0000      -0.653379       -17.7794
  35   2.0000      -0.591590       -16.0980
  36   2.0000      -0.480529       -13.0759
  37   2.0000      -0.439720       -11.9654
  38   2.0000      -0.418984       -11.4011
  39   2.0000      -0.403926       -10.9914
  40   2.0000      -0.357396        -9.7252
  41   2.0000      -0.348332        -9.4786
  42   2.0000      -0.338240        -9.2040
  43   2.0000      -0.281508        -7.6602
  44   2.0000      -0.280254        -7.6261
  45   2.0000      -0.216044        -5.8788
  46   2.0000      -0.215568        -5.8659
  47   2.0000      -0.214762        -5.8440
  48   0.0000       0.023250         0.6327
  49   0.0000       0.093948         2.5564
  50   0.0000       0.120261         3.2725
  51   0.0000       0.133580         3.6349
  52   0.0000       0.136690         3.7195

MULLIKEN ATOMIC CHARGES
-----------------------
   0 C :   -0.087304
   1 C :   -0.082212
   2 C :   -0.123352
   3 Br:   -0.207362
   4 H :    0.051647
   5 H :    0.035112
   6 H :    0.047995
   7 H :    0.053076
   8 H :    0.053159
   9 H :    0.076328
  10 H :    0.100707
  11 Br:   -0.917796
Sum of atomic charges:   -1.0000000

LOEWDIN ATOMIC CHARGES
----------------------
   0 C :   -0.071780
   1 C :   -0.070200
   2 C :   -0.087439
   3 Br:   -0.040015
   4 H :    0.034752
   5 H :    0.024021
   6 H :    0.030919
   7 H :    0.031243
   8 H :    0.030396
   9 H :    0.006218
  10 H :    0.037177
  11 Br:   -0.925292

  Mayer bond orders larger than 0.100000
B(  0-C ,  1-C ) :   1.0880 B(  0-C ,  4-H ) :   0.9680 B(  0-C ,  5-H ) :   0.9652
B(  0-C ,  6-H ) :   0.9714 B(  1-C ,  2-C ) :   1.0393 B(  1-C ,  7-H ) :   0.9482
B(  1-C ,  8-H ) :   0.9505 B(  2-C ,  3-Br) :   0.9799 B(  2-C ,  9-H ) :   0.9136
B(  2-C , 10-H ) :   0.9472 B(  9-H , 11-Br) :   0.1393

Dispersion correction           -0.008586499
FINAL SINGLE POINT ENERGY     -5265.580009240436

DIPOLE MOMENT
-------------
                                X             Y             Z
Electronic contribution:     22.18782      -6.54870       3.41814
Nuclear contribution   :    -23.27717       8.36300      -7.06623
                        -----------------------------------------
Total Dipole Moment    :     -1.08935       1.81430      -3.64808
                        -----------------------------------------
Magnitude (a.u.)       :      4.21745
Magnitude (Debye)      :     10.71990

Rotational constants in cm-1:     0.061837     0.016881     0.013477
Rotational constants in MHz :  1853.840955   506.067856   404.043680

                             ****ORCA TERMINATED NORMALLY****
TOTAL RUN TIME: 0 days 0 hours 3 minutes 7 seconds 682 msec
