                         Program Version 4.2.1 -  RELEASE  -
|  1> ! Opt PBE0 RIJCOSX D3BJ def2-SVP def2/J CPCM(Acetone)
|  2> %geom MaxIter 100 end
|  3> %output
|  4> xyzfile=True
|  5> end
|  6> %scf
|  7> maxiter 250
|  8> end
|  9> %output
| 10> Print[P_Hirshfeld] = 1
| 11> end
| 12> % maxcore
| 13> 4000
| 14> %pal nprocs 4
| 15> end
| 16> *xyz -1 1
| 17> C    -0.38749  -2.13295  -1.18649
| 18> C    -0.57626  -1.12766  -0.07916
| 19> C    -1.99626  -1.00924   0.41876
| 20> I     0.12209   0.85905  -0.75986
| 21> H     0.65790  -2.19465  -1.52127
| 22> H    -1.02195  -1.91386  -2.05909
| 23> H    -0.67835  -3.12368  -0.79422
| 24> H     0.09993  -1.30091   0.77732
| 25> H    -2.06851  -0.31879   1.27029
| 26> H    -2.31460  -2.00565   0.77224
| 27> H    -2.69272  -0.68973  -0.37167
| 28> Cl    0.79374  -1.30017   3.06161
| 29> *
| 30>
| 31>                          ****END OF INPUT****
 Total Charge           Charge          ....   -1
 Multiplicity           Mult            ....    1
 Number of Electrons    NEL             ....   68
Dispersion correction           -0.009976749
FINAL SINGLE POINT ENERGY      -876.041711502201
Dispersion correction            ... done
Dispersion correction           -0.010248921
FINAL SINGLE POINT ENERGY      -876.088429039289
Dispersion correction            ... done
Dispersion correction           -0.010189322
FINAL SINGLE POINT ENERGY      -876.088750950944
Dispersion correction            ... done
FINAL SINGLE POINT ENERGY      -876.089016001913
FINAL SINGLE POINT ENERGY      -876.089087973696
FINAL SINGLE POINT ENERGY      -876.089103115257
FINAL SINGLE POINT ENERGY      -876.089103901491
FINAL SINGLE POINT ENERGY      -876.089096840098
Dispersion correction            ... done
Dispersion correction           -0.010122461
FINAL SINGLE POINT ENERGY      -876.089093580578
Dispersion correction            ... done
Dispersion correction           -0.010129810
FINAL SINGLE POINT ENERGY      -876.089087304124
Dispersion correction            ... done
                    ***********************HURRAY********************

CARTESIAN COORDINATES (ANGSTROEM)
---------------------------------
  C     -0.393292   -2.136126   -1.208699
  C     -0.554965   -1.137365   -0.091591
  C     -1.959110   -1.017638    0.447115
  I      0.132412    0.852038   -0.775522
  H      0.644654   -2.198787   -1.566111
  H     -1.045413   -1.912354   -2.066963
  H     -0.677935   -3.128456   -0.815628
  H      0.134312   -1.309946    0.753763
  H     -1.986285   -0.360355    1.326484
  H     -2.278549   -2.020731    0.779915
  H     -2.675316   -0.665103   -0.311255
  Cl     0.597008   -1.223417    3.056950

 Multiplicity           Mult            ....    1
 Number of Electrons    NEL             ....   68
 Basis Dimension        Dim             ....  121

ORBITAL ENERGIES
----------------

  NO   OCC          E(Eh)            E(eV)
   0   2.0000    -101.517066     -2762.4198
   1   2.0000     -10.266712      -279.3714
   2   2.0000     -10.223542      -278.1967
   3   2.0000     -10.219750      -278.0935
   4   2.0000      -9.364244      -254.8140
   5   2.0000      -7.100261      -193.2079
   6   2.0000      -7.099811      -193.1957
   7   2.0000      -7.099725      -193.1933
   8   2.0000      -6.872482      -187.0098
   9   2.0000      -4.888901      -133.0337
  10   2.0000      -4.875785      -132.6768
  11   2.0000      -4.875506      -132.6693
  12   2.0000      -1.915186       -52.1149
  13   2.0000      -1.911657       -52.0188
  14   2.0000      -1.911324       -52.0098
  15   2.0000      -1.900280       -51.7093
  16   2.0000      -1.900246       -51.7083
  17   2.0000      -0.810622       -22.0581
  18   2.0000      -0.695706       -18.9311
  19   2.0000      -0.682218       -18.5641
  20   2.0000      -0.667667       -18.1682
  21   2.0000      -0.565755       -15.3950
  22   2.0000      -0.463061       -12.6005
  23   2.0000      -0.442765       -12.0483
  24   2.0000      -0.418145       -11.3783
  25   2.0000      -0.390620       -10.6293
  26   2.0000      -0.356646        -9.7048
  27   2.0000      -0.351197        -9.5566
  28   2.0000      -0.305613        -8.3162
  29   2.0000      -0.255335        -6.9480
  30   2.0000      -0.255092        -6.9414
  31   2.0000      -0.210057        -5.7160
  32   2.0000      -0.208938        -5.6855
  33   2.0000      -0.206401        -5.6165
  34   0.0000      -0.011703        -0.3184
  35   0.0000       0.088560         2.4098
  36   0.0000       0.130072         3.5394
  37   0.0000       0.140529         3.8240
  38   0.0000       0.145615         3.9624

MULLIKEN ATOMIC CHARGES
-----------------------
   0 C :   -0.019724
   1 C :   -0.334214
   2 C :   -0.012862
   3 I :   -0.166087
   4 H :    0.059118
   5 H :    0.054220
   6 H :    0.060350
   7 H :    0.075928
   8 H :    0.043341
   9 H :    0.053125
  10 H :    0.051171
  11 Cl:   -0.864368
Sum of atomic charges:   -1.0000000

LOEWDIN ATOMIC CHARGES
----------------------
   0 C :   -0.082200
   1 C :   -0.115157
   2 C :   -0.081624
   3 I :   -0.047656
   4 H :    0.033739
   5 H :    0.031283
   6 H :    0.042803
   7 H :   -0.006648
   8 H :    0.025855
   9 H :    0.040488
  10 H :    0.028298
  11 Cl:   -0.869180

  Mayer bond orders larger than 0.100000
B(  0-C ,  1-C ) :   1.0351 B(  0-C ,  4-H ) :   0.9671 B(  0-C ,  5-H ) :   0.9686
B(  0-C ,  6-H ) :   0.9515 B(  1-C ,  2-C ) :   1.0474 B(  1-C ,  3-I ) :   0.9701
B(  1-C ,  7-H ) :   0.8601 B(  2-C ,  8-H ) :   0.9584 B(  2-C ,  9-H ) :   0.9510
B(  2-C , 10-H ) :   0.9667 B(  7-H , 11-Cl) :   0.2316

Dispersion correction           -0.010129275
FINAL SINGLE POINT ENERGY      -876.089094360093

DIPOLE MOMENT
-------------
                                X             Y             Z
Electronic contribution:     18.02447      71.64619     -54.48593
Nuclear contribution   :    -19.41040     -70.55395      49.65847
                        -----------------------------------------
Total Dipole Moment    :     -1.38593       1.09224      -4.82746
                        -----------------------------------------
Magnitude (a.u.)       :      5.13986
Magnitude (Debye)      :     13.06448

Rotational constants in cm-1:     0.074939     0.028143     0.023168
Rotational constants in MHz :  2246.616860   843.693258   694.552229

                             ****ORCA TERMINATED NORMALLY****
TOTAL RUN TIME: 0 days 0 hours 2 minutes 15 seconds 32 msec
