                         Program Version 4.2.1 -  RELEASE  -
|  1> ! Opt PBE0 RIJCOSX D3BJ def2-SVP def2/J CPCM(DMF)
|  2> %geom MaxIter 100 end
|  3> %output
|  4> xyzfile=True
|  5> end
|  6> %scf
|  7> maxiter 250
|  8> end
|  9> %output
| 10> Print[P_Hirshfeld] = 1
| 11> end
| 12> % maxcore
| 13> 4000
| 14> %pal nprocs 4
| 15> end
| 16> *xyz -1 1
| 17> C    -0.01979  -1.09910   0.98829
| 18> C     0.62608  -0.45436  -0.23365
| 19> C     1.44209   0.77508   0.15024
| 20> C    -0.34576  -0.20626  -1.37127
| 21> Br   -1.80729   1.03011  -0.91373
| 22> H     0.77242  -1.42623   1.68077
| 23> H    -0.67675  -0.38260   1.50830
| 24> H    -0.62784  -1.97382   0.70840
| 25> H     1.33372  -1.19403  -0.65745
| 26> H     1.90452   1.25152  -0.72926
| 27> H     0.81333   1.52714   0.65409
| 28> H     2.23955   0.46849   0.84375
| 29> H     0.14473   0.25813  -2.23694
| 30> H    -0.85387  -1.12652  -1.68677
| 31> Cl    3.35289  -1.91424   2.21495
| 32> *
| 33>
| 34>                          ****END OF INPUT****
 Total Charge           Charge          ....   -1
 Multiplicity           Mult            ....    1
 Number of Electrons    NEL             ....   86
Dispersion correction           -0.012224794
FINAL SINGLE POINT ENERGY     -3191.166275105315
Dispersion correction            ... done
Dispersion correction           -0.012373115
FINAL SINGLE POINT ENERGY     -3191.166285631460
Dispersion correction            ... done
Dispersion correction           -0.012429434
FINAL SINGLE POINT ENERGY     -3191.166222735163
Dispersion correction            ... done
FINAL SINGLE POINT ENERGY     -3191.166223468451
FINAL SINGLE POINT ENERGY     -3191.166230043959
FINAL SINGLE POINT ENERGY     -3191.166216451398
FINAL SINGLE POINT ENERGY     -3191.166193806726
FINAL SINGLE POINT ENERGY     -3191.166192254944
FINAL SINGLE POINT ENERGY     -3191.166190100895
FINAL SINGLE POINT ENERGY     -3191.166079139781
FINAL SINGLE POINT ENERGY     -3191.166164581382
FINAL SINGLE POINT ENERGY     -3191.166174385416
FINAL SINGLE POINT ENERGY     -3191.166179633386
FINAL SINGLE POINT ENERGY     -3191.166163118454
FINAL SINGLE POINT ENERGY     -3191.166155651166
FINAL SINGLE POINT ENERGY     -3191.166153769831
FINAL SINGLE POINT ENERGY     -3191.166163055629
Dispersion correction            ... done
Dispersion correction           -0.012513384
FINAL SINGLE POINT ENERGY     -3191.166185600553
Dispersion correction            ... done
Dispersion correction           -0.012509851
FINAL SINGLE POINT ENERGY     -3191.166197650890
Dispersion correction            ... done
                    ***********************HURRAY********************

CARTESIAN COORDINATES (ANGSTROEM)
---------------------------------
  C     -0.055432   -1.068901    1.023895
  C      0.629179   -0.453989   -0.190875
  C      1.435242    0.780513    0.194749
  C     -0.299787   -0.238455   -1.368404
  Br    -1.806586    0.972356   -0.982328
  H      0.727204   -1.418409    1.715204
  H     -0.695360   -0.329714    1.533215
  H     -0.687375   -1.926299    0.741899
  H      1.358188   -1.203048   -0.555574
  H      1.927634    1.236679   -0.680079
  H      0.796227    1.545862    0.664352
  H      2.211041    0.469030    0.910696
  H      0.212928    0.226337   -2.221049
  H     -0.777818   -1.171416   -1.693446
  Cl     3.322745   -1.887237    1.827466

 Multiplicity           Mult            ....    1
 Number of Electrons    NEL             ....   86
 Basis Dimension        Dim             ....  151

ORBITAL ENERGIES
----------------

  NO   OCC          E(Eh)            E(eV)
   0   2.0000    -483.173305    -13147.8141
   1   2.0000    -101.523210     -2762.5870
   2   2.0000     -62.609432     -1703.6893
   3   2.0000     -56.398526     -1534.6819
   4   2.0000     -56.396359     -1534.6230
   5   2.0000     -56.396303     -1534.6214
   6   2.0000     -10.274897      -279.5942
   7   2.0000     -10.231855      -278.4229
   8   2.0000     -10.207207      -277.7522
   9   2.0000     -10.205227      -277.6983
  10   2.0000      -9.370260      -254.9777
  11   2.0000      -8.754721      -238.2281
  12   2.0000      -7.105997      -193.3640
  13   2.0000      -7.105959      -193.3630
  14   2.0000      -7.105892      -193.3612
  15   2.0000      -6.568818      -178.7466
  16   2.0000      -6.557040      -178.4261
  17   2.0000      -6.556852      -178.4210
  18   2.0000      -2.654379       -72.2293
  19   2.0000      -2.651148       -72.1414
  20   2.0000      -2.651033       -72.1383
  21   2.0000      -2.641487       -71.8785
  22   2.0000      -2.641469       -71.8780
  23   2.0000      -0.839453       -22.8427
  24   2.0000      -0.775445       -21.1009
  25   2.0000      -0.680792       -18.5253
  26   2.0000      -0.675024       -18.3683
  27   2.0000      -0.669500       -18.2180
  28   2.0000      -0.554201       -15.0806
  29   2.0000      -0.473772       -12.8920
  30   2.0000      -0.459314       -12.4986
  31   2.0000      -0.438950       -11.9444
  32   2.0000      -0.385826       -10.4989
  33   2.0000      -0.384988       -10.4761
  34   2.0000      -0.368737       -10.0339
  35   2.0000      -0.347104        -9.4452
  36   2.0000      -0.335782        -9.1371
  37   2.0000      -0.320499        -8.7212
  38   2.0000      -0.283727        -7.7206
  39   2.0000      -0.281873        -7.6701
  40   2.0000      -0.215086        -5.8528
  41   2.0000      -0.214885        -5.8473
  42   2.0000      -0.211125        -5.7450
  43   0.0000       0.022723         0.6183
  44   0.0000       0.081961         2.2303
  45   0.0000       0.121890         3.3168
  46   0.0000       0.123497         3.3605
  47   0.0000       0.143719         3.9108

MULLIKEN ATOMIC CHARGES
-----------------------
   0 C :   -0.048958
   1 C :   -0.179200
   2 C :   -0.050490
   3 C :   -0.049474
   4 Br:   -0.220299
   5 H :    0.014155
   6 H :    0.032041
   7 H :    0.031865
   8 H :    0.040114
   9 H :    0.032197
  10 H :    0.031561
  11 H :    0.018565
  12 H :    0.098505
  13 H :    0.100781
  14 Cl:   -0.851364
Sum of atomic charges:   -1.0000000

LOEWDIN ATOMIC CHARGES
----------------------
   0 C :   -0.080562
   1 C :   -0.068439
   2 C :   -0.076824
   3 C :   -0.068144
   4 Br:   -0.046411
   5 H :    0.005413
   6 H :    0.017640
   7 H :    0.023653
   8 H :    0.035309
   9 H :    0.024440
  10 H :    0.019023
  11 H :    0.009927
  12 H :    0.037744
  13 H :    0.038088
  14 Cl:   -0.870858

  Mayer bond orders larger than 0.100000
B(  0-C ,  1-C ) :   1.0554 B(  0-C ,  5-H ) :   0.9363 B(  0-C ,  6-H ) :   0.9614
B(  0-C ,  7-H ) :   0.9672 B(  1-C ,  2-C ) :   1.0549 B(  1-C ,  3-C ) :   1.0487
B(  1-C ,  8-H ) :   0.9005 B(  2-C ,  9-H ) :   0.9666 B(  2-C , 10-H ) :   0.9648
B(  2-C , 11-H ) :   0.9447 B(  3-C ,  4-Br) :   0.9571 B(  3-C , 12-H ) :   0.9481
B(  3-C , 13-H ) :   0.9468 B(  5-H , 14-Cl) :   0.1429 B( 11-H , 14-Cl) :   0.1239

Dispersion correction           -0.012509499
FINAL SINGLE POINT ENERGY     -3191.166202430445

DIPOLE MOMENT
-------------
                                X             Y             Z
Electronic contribution:    -21.91826      11.46517     -10.33377
Nuclear contribution   :     17.06198      -8.95274       6.83768
                        -----------------------------------------
Total Dipole Moment    :     -4.85627       2.51243      -3.49609
                        -----------------------------------------
Magnitude (a.u.)       :      6.48986
Magnitude (Debye)      :     16.49592

Rotational constants in cm-1:     0.186713     0.014995     0.014702
Rotational constants in MHz :  5597.528109   449.541988   440.761122

                             ****ORCA TERMINATED NORMALLY****
TOTAL RUN TIME: 0 days 0 hours 4 minutes 11 seconds 856 msec
