                         Program Version 4.2.1 -  RELEASE  -
|  1> ! Opt PBE0 RIJCOSX D3BJ def2-SVP def2/J CPCM(Acetone)
|  2> %cpcm
|  3> surfacetype vdw_gaussian
|  4> end
|  5> %geom MaxIter 100 end
|  6> %output
|  7> xyzfile=True
|  8> end
|  9> %scf
| 10> maxiter 250
| 11> end
| 12> %output
| 13> Print[P_Hirshfeld] = 1
| 14> end
| 15> % maxcore
| 16> 4000
| 17> %pal nprocs 4
| 18> end
| 19> *xyz -1 1
| 20> C    -1.72057  -0.43040  -0.56569
| 21> C    -0.23482  -0.65126  -0.49509
| 22> Br    0.76266   0.95487  -1.04459
| 23> H    -2.21719  -1.35068  -0.21866
| 24> H    -2.03125   0.37447   0.11546
| 25> H    -2.06707  -0.19330  -1.58244
| 26> H     0.11566  -1.43947  -1.17238
| 27> H     0.06722  -0.87473   0.53971
| 28> Br   -0.88208  -1.68661   2.77957
| 29> *
| 30>
| 31>                          ****END OF INPUT****
 Total Charge           Charge          ....   -1
 Multiplicity           Mult            ....    1
 Number of Electrons    NEL             ....   88
Dispersion correction           -0.006340550
FINAL SINGLE POINT ENERGY     -5226.337768867978
Dispersion correction            ... done
Dispersion correction           -0.006189266
FINAL SINGLE POINT ENERGY     -5226.338515225552
Dispersion correction            ... done
Dispersion correction           -0.006064141
FINAL SINGLE POINT ENERGY     -5226.338830260898
Dispersion correction            ... done
FINAL SINGLE POINT ENERGY     -5226.338956387079
FINAL SINGLE POINT ENERGY     -5226.338982922694
FINAL SINGLE POINT ENERGY     -5226.338983753227
FINAL SINGLE POINT ENERGY     -5226.338977275375
FINAL SINGLE POINT ENERGY     -5226.338975527543
FINAL SINGLE POINT ENERGY     -5226.338967527234
FINAL SINGLE POINT ENERGY     -5226.338966336944
FINAL SINGLE POINT ENERGY     -5226.338967359588
FINAL SINGLE POINT ENERGY     -5226.338974005294
FINAL SINGLE POINT ENERGY     -5226.338987537804
FINAL SINGLE POINT ENERGY     -5226.339000333096
Dispersion correction            ... done
Dispersion correction           -0.005933174
FINAL SINGLE POINT ENERGY     -5226.339007379738
Dispersion correction            ... done
Dispersion correction           -0.005934399
FINAL SINGLE POINT ENERGY     -5226.339007639836
Dispersion correction            ... done
                    ***********************HURRAY********************

CARTESIAN COORDINATES (ANGSTROEM)
---------------------------------
  C     -1.722254   -0.430603   -0.596175
  C     -0.235684   -0.657543   -0.546965
  Br     0.758016    0.973068   -1.016527
  H     -2.228924   -1.372696   -0.330557
  H     -2.034146    0.326895    0.136544
  H     -2.061318   -0.119741   -1.595315
  H      0.107447   -1.411711   -1.265279
  H      0.094342   -0.931171    0.465056
  Br    -0.884918   -1.673608    3.105108

 Multiplicity           Mult            ....    1
 Number of Electrons    NEL             ....   88
 Basis Dimension        Dim             ....  117

ORBITAL ENERGIES
----------------

  NO   OCC          E(Eh)            E(eV)
   0   2.0000    -483.171051    -13147.7527
   1   2.0000    -483.063681    -13144.8310
   2   2.0000     -62.607425     -1703.6347
   3   2.0000     -62.498827     -1700.6795
   4   2.0000     -56.396602     -1534.6296
   5   2.0000     -56.394359     -1534.5685
   6   2.0000     -56.394203     -1534.5643
   7   2.0000     -56.286807     -1531.6419
   8   2.0000     -56.286748     -1531.6403
   9   2.0000     -56.286402     -1531.6309
  10   2.0000     -10.272835      -279.5381
  11   2.0000     -10.224659      -278.2271
  12   2.0000      -8.752744      -238.1743
  13   2.0000      -8.642281      -235.1684
  14   2.0000      -6.566928      -178.6952
  15   2.0000      -6.554950      -178.3693
  16   2.0000      -6.554901      -178.3679
  17   2.0000      -6.448797      -175.4807
  18   2.0000      -6.448499      -175.4726
  19   2.0000      -6.448457      -175.4714
  20   2.0000      -2.652425       -72.1762
  21   2.0000      -2.649260       -72.0900
  22   2.0000      -2.649131       -72.0865
  23   2.0000      -2.639413       -71.8221
  24   2.0000      -2.639404       -71.8218
  25   2.0000      -2.535573       -68.9965
  26   2.0000      -2.535541       -68.9956
  27   2.0000      -2.535519       -68.9950
  28   2.0000      -2.535296       -68.9889
  29   2.0000      -2.535289       -68.9887
  30   2.0000      -0.824464       -22.4348
  31   2.0000      -0.732934       -19.9441
  32   2.0000      -0.651396       -17.7254
  33   2.0000      -0.610280       -16.6066
  34   2.0000      -0.468260       -12.7420
  35   2.0000      -0.441050       -12.0016
  36   2.0000      -0.403807       -10.9882
  37   2.0000      -0.365889        -9.9563
  38   2.0000      -0.350003        -9.5241
  39   2.0000      -0.282911        -7.6984
  40   2.0000      -0.281114        -7.6495
  41   2.0000      -0.214257        -5.8302
  42   2.0000      -0.214133        -5.8269
  43   2.0000      -0.213449        -5.8082
  44   0.0000       0.022886         0.6228
  45   0.0000       0.097129         2.6430
  46   0.0000       0.132153         3.5961
  47   0.0000       0.142662         3.8820
  48   0.0000       0.159699         4.3456

MULLIKEN ATOMIC CHARGES
-----------------------
   0 C :   -0.068034
   1 C :   -0.128504
   2 Br:   -0.222915
   3 H :    0.060905
   4 H :    0.055857
   5 H :    0.056431
   6 H :    0.105630
   7 H :    0.078261
   8 Br:   -0.937631
Sum of atomic charges:   -1.0000000

LOEWDIN ATOMIC CHARGES
----------------------
   0 C :   -0.087553
   1 C :   -0.082602
   2 Br:   -0.049602
   3 H :    0.042272
   4 H :    0.032625
   5 H :    0.032402
   6 H :    0.038387
   7 H :    0.015760
   8 Br:   -0.941689

  Mayer bond orders larger than 0.100000
B(  0-C ,  1-C ) :   1.0728 B(  0-C ,  3-H ) :   0.9525 B(  0-C ,  4-H ) :   0.9699
B(  0-C ,  5-H ) :   0.9702 B(  1-C ,  2-Br) :   0.9652 B(  1-C ,  6-H ) :   0.9512
B(  1-C ,  7-H ) :   0.9269 B(  7-H ,  8-Br) :   0.1087

Dispersion correction           -0.005936249
FINAL SINGLE POINT ENERGY     -5226.339005827924

DIPOLE MOMENT
-------------
                                X             Y             Z
Electronic contribution:      8.11809       3.59337       6.95617
Nuclear contribution   :     -7.49267      -2.12073     -10.75924
                        -----------------------------------------
Total Dipole Moment    :      0.62542       1.47264      -3.80307
                        -----------------------------------------
Magnitude (a.u.)       :      4.12592
Magnitude (Debye)      :     10.48724

Rotational constants in cm-1:     0.186780     0.015329     0.014431
Rotational constants in MHz :  5599.537532   459.556750   432.621522

                             ****ORCA TERMINATED NORMALLY****
TOTAL RUN TIME: 0 days 0 hours 3 minutes 1 seconds 116 msec
