                         Program Version 4.2.1 -  RELEASE  -
|  1> ! Opt PBE0 RIJCOSX D3BJ def2-SVP def2/J CPCM(DMF)
|  2> %geom MaxIter 100 end
|  3> %output
|  4> xyzfile=True
|  5> end
|  6> %scf
|  7> maxiter 250
|  8> end
|  9> %output
| 10> Print[P_Hirshfeld] = 1
| 11> end
| 12> % maxcore
| 13> 4000
| 14> %pal nprocs 4
| 15> end
| 16> *xyz -1 1
| 17> C     1.04168  -0.64831   1.14822
| 18> C     0.22273  -0.60499  -0.14657
| 19> C     1.16109  -0.54283  -1.35060
| 20> C    -0.65168  -1.85561  -0.22933
| 21> C    -0.62482   0.66143  -0.05459
| 22> Br   -1.75392   0.99893  -1.62705
| 23> H     0.39310  -0.68064   2.03806
| 24> H     1.67858  -1.54512   1.17624
| 25> H     1.70825   0.22198   1.25107
| 26> H     0.59380  -0.53683  -2.29396
| 27> H     1.82993  -1.41747  -1.36104
| 28> H     1.78574   0.36461  -1.32179
| 29> H    -1.25923  -1.85963  -1.14764
| 30> H    -1.33437  -1.92445   0.63300
| 31> H    -0.01755  -2.75627  -0.23487
| 32> H    -1.32546   0.61944   0.79027
| 33> H     0.00504   1.55623   0.04077
| 34> Cl    3.44837  -1.01208   3.89367
| 35> *
| 36>
| 37>                          ****END OF INPUT****
 Total Charge           Charge          ....   -1
 Multiplicity           Mult            ....    1
 Number of Electrons    NEL             ....   94
Dispersion correction           -0.015348027
FINAL SINGLE POINT ENERGY     -3230.402793480272
Dispersion correction            ... done
Dispersion correction           -0.015414907
FINAL SINGLE POINT ENERGY     -3230.402825849590
Dispersion correction            ... done
Dispersion correction           -0.015479066
FINAL SINGLE POINT ENERGY     -3230.402772960823
Dispersion correction            ... done
FINAL SINGLE POINT ENERGY     -3230.402761641093
FINAL SINGLE POINT ENERGY     -3230.402748742598
FINAL SINGLE POINT ENERGY     -3230.402756115414
FINAL SINGLE POINT ENERGY     -3230.402757899704
FINAL SINGLE POINT ENERGY     -3230.402757117180
FINAL SINGLE POINT ENERGY     -3230.402753480086
FINAL SINGLE POINT ENERGY     -3230.402746842306
FINAL SINGLE POINT ENERGY     -3230.402728275112
FINAL SINGLE POINT ENERGY     -3230.402723907702
FINAL SINGLE POINT ENERGY     -3230.402720480043
FINAL SINGLE POINT ENERGY     -3230.402718699517
FINAL SINGLE POINT ENERGY     -3230.402721903274
FINAL SINGLE POINT ENERGY     -3230.402730837797
FINAL SINGLE POINT ENERGY     -3230.402733111645
Dispersion correction            ... done
Dispersion correction           -0.015473167
FINAL SINGLE POINT ENERGY     -3230.402729678438
Dispersion correction            ... done
Dispersion correction           -0.015471251
FINAL SINGLE POINT ENERGY     -3230.402741900063
Dispersion correction            ... done
                    ***********************HURRAY********************

CARTESIAN COORDINATES (ANGSTROEM)
---------------------------------
  C      1.087039   -0.617845    1.129293
  C      0.239163   -0.598299   -0.147749
  C      1.148148   -0.541864   -1.374414
  C     -0.626387   -1.856819   -0.196862
  C     -0.617805    0.661203   -0.051486
  Br    -1.777755    0.977316   -1.606203
  H      0.465001   -0.657967    2.036572
  H      1.744970   -1.498764    1.158959
  H      1.736519    0.266938    1.213310
  H      0.559157   -0.554189   -2.304366
  H      1.826262   -1.409333   -1.389301
  H      1.763799    0.372264   -1.372411
  H     -1.265647   -1.870142   -1.093560
  H     -1.278431   -1.928292    0.688823
  H      0.014039   -2.752820   -0.220690
  H     -1.302592    0.622162    0.806397
  H      0.004729    1.562757    0.024475
  Cl     3.181070   -1.137917    3.903074

 Multiplicity           Mult            ....    1
 Number of Electrons    NEL             ....   94
 Basis Dimension        Dim             ....  175

ORBITAL ENERGIES
----------------

  NO   OCC          E(Eh)            E(eV)
   0   2.0000    -483.176966    -13147.9137
   1   2.0000    -101.512314     -2762.2905
   2   2.0000     -62.613020     -1703.7869
   3   2.0000     -56.402191     -1534.7816
   4   2.0000     -56.399931     -1534.7201
   5   2.0000     -56.399858     -1534.7182
   6   2.0000     -10.277514      -279.6654
   7   2.0000     -10.246417      -278.8192
   8   2.0000     -10.217153      -278.0229
   9   2.0000     -10.216917      -278.0165
  10   2.0000     -10.213446      -277.9220
  11   2.0000      -9.359466      -254.6840
  12   2.0000      -8.758256      -238.3243
  13   2.0000      -7.095219      -193.0707
  14   2.0000      -7.095190      -193.0699
  15   2.0000      -7.095179      -193.0696
  16   2.0000      -6.572432      -178.8450
  17   2.0000      -6.560567      -178.5221
  18   2.0000      -6.560303      -178.5149
  19   2.0000      -2.657970       -72.3270
  20   2.0000      -2.654771       -72.2400
  21   2.0000      -2.654588       -72.2350
  22   2.0000      -2.644939       -71.9725
  23   2.0000      -2.644914       -71.9718
  24   2.0000      -0.856381       -23.3033
  25   2.0000      -0.790955       -21.5230
  26   2.0000      -0.693462       -18.8701
  27   2.0000      -0.692230       -18.8365
  28   2.0000      -0.667727       -18.1698
  29   2.0000      -0.662134       -18.0176
  30   2.0000      -0.542865       -14.7721
  31   2.0000      -0.472878       -12.8677
  32   2.0000      -0.467857       -12.7310
  33   2.0000      -0.450570       -12.2606
  34   2.0000      -0.417603       -11.3636
  35   2.0000      -0.404395       -11.0041
  36   2.0000      -0.378151       -10.2900
  37   2.0000      -0.366619        -9.9762
  38   2.0000      -0.364930        -9.9302
  39   2.0000      -0.347342        -9.4517
  40   2.0000      -0.334161        -9.0930
  41   2.0000      -0.329625        -8.9696
  42   2.0000      -0.285435        -7.7671
  43   2.0000      -0.284380        -7.7384
  44   2.0000      -0.207757        -5.6534
  45   2.0000      -0.207544        -5.6476
  46   2.0000      -0.205131        -5.5819
  47   0.0000       0.019480         0.5301
  48   0.0000       0.070233         1.9111
  49   0.0000       0.114665         3.1202
  50   0.0000       0.117505         3.1975
  51   0.0000       0.130770         3.5584

MULLIKEN ATOMIC CHARGES
-----------------------
   0 C :    0.016673
   1 C :   -0.384851
   2 C :   -0.008489
   3 C :   -0.007120
   4 C :   -0.022881
   5 Br:   -0.193975
   6 H :    0.026759
   7 H :    0.025923
   8 H :    0.027821
   9 H :    0.040959
  10 H :    0.048176
  11 H :    0.043660
  12 H :    0.042208
  13 H :    0.043868
  14 H :    0.045782
  15 H :    0.100127
  16 H :    0.100764
  17 Cl:   -0.945405
Sum of atomic charges:   -1.0000000

LOEWDIN ATOMIC CHARGES
----------------------
   0 C :   -0.055956
   1 C :   -0.092186
   2 C :   -0.061931
   3 C :   -0.060913
   4 C :   -0.064954
   5 Br:   -0.024583
   6 H :    0.022973
   7 H :    0.022268
   8 H :    0.023113
   9 H :    0.020851
  10 H :    0.031665
  11 H :    0.029628
  12 H :    0.021811
  13 H :    0.029517
  14 H :    0.031751
  15 H :    0.038726
  16 H :    0.038867
  17 Cl:   -0.950646

  Mayer bond orders larger than 0.100000
B(  0-C ,  1-C ) :   1.0015 B(  0-C ,  6-H ) :   0.9663 B(  0-C ,  7-H ) :   0.9602
B(  0-C ,  8-H ) :   0.9660 B(  1-C ,  2-C ) :   1.0169 B(  1-C ,  3-C ) :   1.0180
B(  1-C ,  4-C ) :   0.9904 B(  2-C ,  9-H ) :   0.9619 B(  2-C , 10-H ) :   0.9690
B(  2-C , 11-H ) :   0.9679 B(  3-C , 12-H ) :   0.9629 B(  3-C , 13-H ) :   0.9669
B(  3-C , 14-H ) :   0.9694 B(  4-C ,  5-Br) :   0.9767 B(  4-C , 15-H ) :   0.9478
B(  4-C , 16-H ) :   0.9472

Dispersion correction           -0.015470614
FINAL SINGLE POINT ENERGY     -3230.402741385741

DIPOLE MOMENT
-------------
                                X             Y             Z
Electronic contribution:    -21.45588      16.69872     -15.54045
Nuclear contribution   :     16.22398     -14.91859       9.25411
                        -----------------------------------------
Total Dipole Moment    :     -5.23190       1.78013      -6.28634
                        -----------------------------------------
Magnitude (a.u.)       :      8.37016
Magnitude (Debye)      :     21.27527

Rotational constants in cm-1:     0.107018     0.010698     0.010408
Rotational constants in MHz :  3208.325919   320.707515   312.018805

                             ****ORCA TERMINATED NORMALLY****
TOTAL RUN TIME: 0 days 0 hours 5 minutes 50 seconds 46 msec
