                         Program Version 4.2.1 -  RELEASE  -
|  1> ! Opt PBE0 RIJCOSX D3BJ def2-SVP def2/J CPCM(Acetone)
|  2> %cpcm
|  3> surfacetype vdw_gaussian
|  4> end
|  5> %geom MaxIter 100 end
|  6> %output
|  7> xyzfile=True
|  8> end
|  9> %scf
| 10> maxiter 250
| 11> end
| 12> %output
| 13> Print[P_Hirshfeld] = 1
| 14> end
| 15> % maxcore
| 16> 4000
| 17> %pal nprocs 4
| 18> end
| 19> *xyz -1 1
| 20> C    -1.38041  -0.25871  -0.35688
| 21> Br    0.25229   0.29599  -1.25466
| 22> H    -1.74641  -1.16544  -0.85204
| 23> H    -2.10275   0.55843  -0.46082
| 24> H    -1.10501  -0.44195   0.69552
| 25> Br    0.03988  -0.54964   2.96621
| 26> *
| 27>
| 28>                          ****END OF INPUT****
 Total Charge           Charge          ....   -1
 Multiplicity           Mult            ....    1
 Number of Electrons    NEL             ....   80
Dispersion correction           -0.003496238
FINAL SINGLE POINT ENERGY     -5187.094927151967
Dispersion correction            ... done
Dispersion correction           -0.003343519
FINAL SINGLE POINT ENERGY     -5187.095289665428
Dispersion correction            ... done
Dispersion correction           -0.003297975
FINAL SINGLE POINT ENERGY     -5187.095300816552
Dispersion correction            ... done
FINAL SINGLE POINT ENERGY     -5187.095278979744
FINAL SINGLE POINT ENERGY     -5187.095253689726
FINAL SINGLE POINT ENERGY     -5187.095179402912
FINAL SINGLE POINT ENERGY     -5187.094857137571
FINAL SINGLE POINT ENERGY     -5187.094974386252
FINAL SINGLE POINT ENERGY     -5187.094978130477
FINAL SINGLE POINT ENERGY     -5187.094966657614
FINAL SINGLE POINT ENERGY     -5187.095085030217
FINAL SINGLE POINT ENERGY     -5187.095115388356
FINAL SINGLE POINT ENERGY     -5187.095123781479
FINAL SINGLE POINT ENERGY     -5187.095159328719
FINAL SINGLE POINT ENERGY     -5187.095153675546
FINAL SINGLE POINT ENERGY     -5187.095129633519
FINAL SINGLE POINT ENERGY     -5187.095132238896
Dispersion correction            ... done
Dispersion correction           -0.003301645
FINAL SINGLE POINT ENERGY     -5187.095147596283
Dispersion correction            ... done
Dispersion correction           -0.003300454
FINAL SINGLE POINT ENERGY     -5187.095140053493
Dispersion correction            ... done
                    ***********************HURRAY********************

CARTESIAN COORDINATES (ANGSTROEM)
---------------------------------
  C     -1.428403   -0.239287   -0.406530
  Br     0.282363    0.298291   -1.151064
  H     -1.713478   -1.193804   -0.863310
  H     -2.157814    0.540764   -0.649897
  H     -1.279442   -0.342117    0.677305
  Br     0.254365   -0.625168    3.130826

 Multiplicity           Mult            ....    1
 Number of Electrons    NEL             ....   80
 Basis Dimension        Dim             ....   93

ORBITAL ENERGIES
----------------

  NO   OCC          E(Eh)            E(eV)
   0   2.0000    -483.174654    -13147.8508
   1   2.0000    -483.062346    -13144.7947
   2   2.0000     -62.610989     -1703.7316
   3   2.0000     -62.497575     -1700.6455
   4   2.0000     -56.400218     -1534.7280
   5   2.0000     -56.397811     -1534.6624
   6   2.0000     -56.397798     -1534.6621
   7   2.0000     -56.285537     -1531.6073
   8   2.0000     -56.285523     -1531.6069
   9   2.0000     -56.285157     -1531.5970
  10   2.0000     -10.268087      -279.4088
  11   2.0000      -8.756385      -238.2733
  12   2.0000      -8.641035      -235.1345
  13   2.0000      -6.571049      -178.8073
  14   2.0000      -6.558345      -178.4616
  15   2.0000      -6.558274      -178.4597
  16   2.0000      -6.447634      -175.4491
  17   2.0000      -6.447198      -175.4372
  18   2.0000      -6.447191      -175.4370
  19   2.0000      -2.656568       -72.2889
  20   2.0000      -2.653013       -72.1922
  21   2.0000      -2.652918       -72.1896
  22   2.0000      -2.642626       -71.9095
  23   2.0000      -2.642617       -71.9093
  24   2.0000      -2.534385       -68.9641
  25   2.0000      -2.534328       -68.9626
  26   2.0000      -2.534315       -68.9622
  27   2.0000      -2.533987       -68.9533
  28   2.0000      -2.533982       -68.9531
  29   2.0000      -0.813721       -22.1425
  30   2.0000      -0.665524       -18.1098
  31   2.0000      -0.650240       -17.6939
  32   2.0000      -0.437562       -11.9067
  33   2.0000      -0.436427       -11.8758
  34   2.0000      -0.388026       -10.5587
  35   2.0000      -0.282652        -7.6914
  36   2.0000      -0.282199        -7.6790
  37   2.0000      -0.213621        -5.8129
  38   2.0000      -0.213150        -5.8001
  39   2.0000      -0.212921        -5.7939
  40   0.0000       0.024431         0.6648
  41   0.0000       0.110237         2.9997
  42   0.0000       0.148662         4.0453
  43   0.0000       0.165961         4.5160
  44   0.0000       0.355129         9.6635

MULLIKEN ATOMIC CHARGES
-----------------------
   0 C :   -0.140338
   1 Br:   -0.223689
   2 H :    0.109313
   3 H :    0.113360
   4 H :    0.085399
   5 Br:   -0.944044
Sum of atomic charges:   -1.0000000

LOEWDIN ATOMIC CHARGES
----------------------
   0 C :   -0.115776
   1 Br:   -0.033941
   2 H :    0.042019
   3 H :    0.041984
   4 H :    0.015632
   5 Br:   -0.949918

  Mayer bond orders larger than 0.100000
B(  0-C ,  1-Br) :   0.9858 B(  0-C ,  2-H ) :   0.9683 B(  0-C ,  3-H ) :   0.9675
B(  0-C ,  4-H ) :   0.9397 B(  4-H ,  5-Br) :   0.1205

Dispersion correction           -0.003299918
FINAL SINGLE POINT ENERGY     -5187.095137697023

DIPOLE MOMENT
-------------
                                X             Y             Z
Electronic contribution:      7.00445       1.16649       1.76058
Nuclear contribution   :     -7.96518      -0.60159      -5.42741
                        -----------------------------------------
Total Dipole Moment    :     -0.96073       0.56491      -3.66684
                        -----------------------------------------
Magnitude (a.u.)       :      3.83247
Magnitude (Debye)      :      9.74136

Rotational constants in cm-1:     0.370895     0.021216     0.020146
Rotational constants in MHz : 11119.151764   636.032721   603.974224

                             ****ORCA TERMINATED NORMALLY****
TOTAL RUN TIME: 0 days 0 hours 3 minutes 38 seconds 677 msec
