                         Program Version 4.2.1 -  RELEASE  -
|  1> ! Opt PBE0 RIJCOSX D3BJ def2-SVP def2/J CPCM(DMF)
|  2> %geom MaxIter 100 end
|  3> %output
|  4> xyzfile=True
|  5> end
|  6> %scf
|  7> maxiter 250
|  8> end
|  9> %output
| 10> Print[P_Hirshfeld] = 1
| 11> end
| 12> % maxcore
| 13> 4000
| 14> %pal nprocs 4
| 15> end
| 16> *xyz -1 1
| 17> C    -0.56423  -0.20857   0.42187
| 18> Br   -0.63288   0.32183  -1.44553
| 19> H    -1.14065   0.52227   0.99763
| 20> H     0.47443  -0.22875   0.77410
| 21> H    -1.01333  -1.20503   0.50414
| 22> Cl    1.66529  -0.62877   3.05032
| 23> *
| 24>
| 25>                          ****END OF INPUT****
 Total Charge           Charge          ....   -1
 Multiplicity           Mult            ....    1
 Number of Electrons    NEL             ....   62
Dispersion correction           -0.003036133
FINAL SINGLE POINT ENERGY     -3073.437609580645
Dispersion correction            ... done
Dispersion correction           -0.003106997
FINAL SINGLE POINT ENERGY     -3073.437581097526
Dispersion correction            ... done
Dispersion correction           -0.003071194
FINAL SINGLE POINT ENERGY     -3073.437654273991
Dispersion correction            ... done
FINAL SINGLE POINT ENERGY     -3073.437686602007
FINAL SINGLE POINT ENERGY     -3073.438396392962
FINAL SINGLE POINT ENERGY     -3073.438622049651
FINAL SINGLE POINT ENERGY     -3073.438410981560
FINAL SINGLE POINT ENERGY     -3073.437976041334
FINAL SINGLE POINT ENERGY     -3073.438892975178
FINAL SINGLE POINT ENERGY     -3073.438989946451
FINAL SINGLE POINT ENERGY     -3073.438713653662
FINAL SINGLE POINT ENERGY     -3073.438843946726
FINAL SINGLE POINT ENERGY     -3073.438754623578
FINAL SINGLE POINT ENERGY     -3073.438727463540
FINAL SINGLE POINT ENERGY     -3073.438742405650
Dispersion correction            ... done
Dispersion correction           -0.003276574
FINAL SINGLE POINT ENERGY     -3073.438757911030
Dispersion correction            ... done
Dispersion correction           -0.003274918
FINAL SINGLE POINT ENERGY     -3073.438772050286
Dispersion correction            ... done
                    ***********************HURRAY********************

CARTESIAN COORDINATES (ANGSTROEM)
---------------------------------
  C     -0.761446   -0.244441    0.528685
  Br     0.127786    0.302448   -1.110695
  H     -1.488295    0.533687    0.785385
  H      0.035995   -0.351167    1.284805
  H     -1.268003   -1.196436    0.328186
  Cl     2.142593   -0.471110    2.486164

 Multiplicity           Mult            ....    1
 Number of Electrons    NEL             ....   62
 Basis Dimension        Dim             ....   79

ORBITAL ENERGIES
----------------

  NO   OCC          E(Eh)            E(eV)
   0   2.0000    -483.173407    -13147.8168
   1   2.0000    -101.518987     -2762.4721
   2   2.0000     -62.609742     -1703.6977
   3   2.0000     -56.398926     -1534.6928
   4   2.0000     -56.396595     -1534.6294
   5   2.0000     -56.396589     -1534.6292
   6   2.0000     -10.261185      -279.2211
   7   2.0000      -9.366253      -254.8687
   8   2.0000      -8.755101      -238.2384
   9   2.0000      -7.102318      -193.2639
  10   2.0000      -7.101796      -193.2497
  11   2.0000      -7.101744      -193.2483
  12   2.0000      -6.569573      -178.7672
  13   2.0000      -6.557209      -178.4307
  14   2.0000      -6.557060      -178.4267
  15   2.0000      -2.655094       -72.2488
  16   2.0000      -2.651697       -72.1564
  17   2.0000      -2.651542       -72.1521
  18   2.0000      -2.641524       -71.8795
  19   2.0000      -2.641519       -71.8794
  20   2.0000      -0.811087       -22.0708
  21   2.0000      -0.671778       -18.2800
  22   2.0000      -0.659459       -17.9448
  23   2.0000      -0.433719       -11.8021
  24   2.0000      -0.431051       -11.7295
  25   2.0000      -0.384343       -10.4585
  26   2.0000      -0.282415        -7.6849
  27   2.0000      -0.281386        -7.6569
  28   2.0000      -0.212848        -5.7919
  29   2.0000      -0.212790        -5.7903
  30   2.0000      -0.211654        -5.7594
  31   0.0000       0.026808         0.7295
  32   0.0000       0.113926         3.1001
  33   0.0000       0.149859         4.0779
  34   0.0000       0.201275         5.4770
  35   0.0000       0.358496         9.7552

MULLIKEN ATOMIC CHARGES
-----------------------
   0 C :   -0.142125
   1 Br:   -0.241789
   2 H :    0.106381
   3 H :    0.060788
   4 H :    0.103973
   5 Cl:   -0.887227
Sum of atomic charges:   -1.0000000

LOEWDIN ATOMIC CHARGES
----------------------
   0 C :   -0.124056
   1 Br:   -0.047676
   2 H :    0.037979
   3 H :   -0.005966
   4 H :    0.038385
   5 Cl:   -0.898666

  Mayer bond orders larger than 0.100000
B(  0-C ,  1-Br) :   0.9749 B(  0-C ,  2-H ) :   0.9667 B(  0-C ,  3-H ) :   0.9020
B(  0-C ,  4-H ) :   0.9677 B(  3-H ,  5-Cl) :   0.2358

Dispersion correction           -0.003274605
FINAL SINGLE POINT ENERGY     -3073.438779533682

DIPOLE MOMENT
-------------
                                X             Y             Z
Electronic contribution:     -0.87362       3.54781     -13.21029
Nuclear contribution   :     -2.16344      -2.91710       9.71520
                        -----------------------------------------
Total Dipole Moment    :     -3.03706       0.63071      -3.49509
                        -----------------------------------------
Magnitude (a.u.)       :      4.67302
Magnitude (Debye)      :     11.87788

Rotational constants in cm-1:     0.427915     0.038718     0.035752
Rotational constants in MHz : 12828.559130  1160.725723  1071.813667

                             ****ORCA TERMINATED NORMALLY****
TOTAL RUN TIME: 0 days 0 hours 3 minutes 16 seconds 241 msec
