                         Program Version 4.2.1 -  RELEASE  -
|  1> ! Freq PBE0 RIJCOSX D3BJ def2-SVP def2/J CPCM(Acetone)
|  2> %geom MaxIter 100 end
|  3> %output
|  4> xyzfile=True
|  5> end
|  6> %scf
|  7> maxiter 250
|  8> end
|  9> %output
| 10> Print[P_Hirshfeld] = 1
| 11> end
| 12> % maxcore
| 13> 4000
| 14> %pal nprocs 4
| 15> end
| 16> *xyz -1 1
| 17> C   -0.61108554176992     -1.90249414589183      0.55494595273581
| 18>   C   -1.37841775324750     -1.04775266750953     -0.45318454490537
| 19>   C   -2.05742934635369      0.12093870145648      0.25888003679094
| 20>   C   -2.44118206386911     -1.90605156219998     -1.15290204663041
| 21>   C   -0.46229204020463     -0.55309718998576     -1.57049086949790
| 22>   Br  1.00294538938316      0.61066976669421     -0.98235235066098
| 23>   H   -0.08241866324401     -2.72997737426736      0.05533746475356
| 24>   H   -1.30803120363562     -2.33650657672195      1.28936846085394
| 25>   H   0.12480798822772     -1.30068320638508      1.10990699698411
| 26>   H   -2.59855694391767      0.76269462546613     -0.45560262348556
| 27>   H   -2.78329163944189     -0.25699384339277      0.99589190896292
| 28>   H   -1.32343503744666      0.73942144353444      0.79802700530080
| 29>   H   -1.98409899213694     -2.75454955972489     -1.68601762793028
| 30>   H   -3.14595057362930     -2.31052543882069     -0.40972196089222
| 31>   H   -3.01799082420076     -1.31215181322623     -1.88018477015494
| 32>   H   0.02987171685988     -1.39045121992434     -2.08264438844943
| 33>   H   -1.01758317502325      0.04724751256440     -2.30303408342632
| 34>   Br  0.78053870365019      0.98354254833478      3.44395743965134
| 35> *
| 36>
| 37>                          ****END OF INPUT****

CARTESIAN COORDINATES (ANGSTROEM)
---------------------------------
  C     -0.611086   -1.902494    0.554946
  C     -1.378418   -1.047753   -0.453185
  C     -2.057429    0.120939    0.258880
  C     -2.441182   -1.906052   -1.152902
  C     -0.462292   -0.553097   -1.570491
  Br     1.002945    0.610670   -0.982352
  H     -0.082419   -2.729977    0.055337
  H     -1.308031   -2.336507    1.289368
  H      0.124808   -1.300683    1.109907
  H     -2.598557    0.762695   -0.455603
  H     -2.783292   -0.256994    0.995892
  H     -1.323435    0.739421    0.798027
  H     -1.984099   -2.754550   -1.686018
  H     -3.145951   -2.310525   -0.409722
  H     -3.017991   -1.312152   -1.880185
  H      0.029872   -1.390451   -2.082644
  H     -1.017583    0.047248   -2.303034
  Br     0.780539    0.983543    3.443957

 Total Charge           Charge          ....   -1
 Multiplicity           Mult            ....    1
 Number of Electrons    NEL             ....  112
 Basis Dimension        Dim             ....  189

ORBITAL ENERGIES
----------------

  NO   OCC          E(Eh)            E(eV)
   0   2.0000    -483.169840    -13147.7198
   1   2.0000    -483.059666    -13144.7218
   2   2.0000     -62.605993     -1703.5957
   3   2.0000     -62.494815     -1700.5704
   4   2.0000     -56.395166     -1534.5905
   5   2.0000     -56.392909     -1534.5291
   6   2.0000     -56.392815     -1534.5265
   7   2.0000     -56.282830     -1531.5337
   8   2.0000     -56.282761     -1531.5318
   9   2.0000     -56.282335     -1531.5202
  10   2.0000     -10.273352      -279.5521
  11   2.0000     -10.244478      -278.7664
  12   2.0000     -10.218946      -278.0717
  13   2.0000     -10.210622      -277.8452
  14   2.0000     -10.210023      -277.8289
  15   2.0000      -8.751281      -238.1345
  16   2.0000      -8.638269      -235.0592
  17   2.0000      -6.565636      -178.6600
  18   2.0000      -6.553384      -178.3266
  19   2.0000      -6.553352      -178.3258
  20   2.0000      -6.444699      -175.3692
  21   2.0000      -6.444576      -175.3658
  22   2.0000      -6.444447      -175.3623
  23   2.0000      -2.651093       -72.1399
  24   2.0000      -2.647848       -72.0516
  25   2.0000      -2.647732       -72.0484
  26   2.0000      -2.637827       -71.7789
  27   2.0000      -2.637800       -71.7782
  28   2.0000      -2.531573       -68.8876
  29   2.0000      -2.531549       -68.8870
  30   2.0000      -2.531421       -68.8835
  31   2.0000      -2.531325       -68.8809
  32   2.0000      -2.531295       -68.8800
  33   2.0000      -0.852808       -23.2061
  34   2.0000      -0.786714       -21.4076
  35   2.0000      -0.691908       -18.8278
  36   2.0000      -0.686606       -18.6835
  37   2.0000      -0.664735       -18.0884
  38   2.0000      -0.647406       -17.6168
  39   2.0000      -0.539195       -14.6722
  40   2.0000      -0.470446       -12.8015
  41   2.0000      -0.464263       -12.6332
  42   2.0000      -0.447237       -12.1699
  43   2.0000      -0.415728       -11.3125
  44   2.0000      -0.402859       -10.9623
  45   2.0000      -0.373123       -10.1532
  46   2.0000      -0.364928        -9.9302
  47   2.0000      -0.362265        -9.8577
  48   2.0000      -0.344967        -9.3870
  49   2.0000      -0.331363        -9.0168
  50   2.0000      -0.325745        -8.8640
  51   2.0000      -0.278261        -7.5719
  52   2.0000      -0.277930        -7.5629
  53   2.0000      -0.211869        -5.7652
  54   2.0000      -0.211191        -5.7468
  55   2.0000      -0.207661        -5.6507
  56   0.0000       0.024988         0.6800
  57   0.0000       0.073874         2.0102
  58   0.0000       0.116413         3.1678
  59   0.0000       0.119139         3.2419
  60   0.0000       0.137397         3.7388

MULLIKEN ATOMIC CHARGES
-----------------------
   0 C :    0.006946
   1 C :   -0.403304
   2 C :   -0.010070
   3 C :   -0.005102
   4 C :   -0.026108
   5 Br:   -0.182616
   6 H :    0.034208
   7 H :    0.038108
   8 H :    0.042106
   9 H :    0.038628
  10 H :    0.042914
  11 H :    0.046577
  12 H :    0.044006
  13 H :    0.047910
  14 H :    0.044889
  15 H :    0.096887
  16 H :    0.097661
  17 Br:   -0.953639
Sum of atomic charges:   -1.0000000

LOEWDIN ATOMIC CHARGES
----------------------
   0 C :   -0.061197
   1 C :   -0.088681
   2 C :   -0.063950
   3 C :   -0.052234
   4 C :   -0.069704
   5 Br:   -0.018256
   6 H :    0.025953
   7 H :    0.029340
   8 H :    0.018859
   9 H :    0.026976
  10 H :    0.030044
  11 H :    0.019833
  12 H :    0.029399
  13 H :    0.033195
  14 H :    0.029620
  15 H :    0.037032
  16 H :    0.036945
  17 Br:   -0.963174

  Mayer bond orders larger than 0.100000
B(  0-C ,  1-C ) :   1.0264 B(  0-C ,  6-H ) :   0.9648 B(  0-C ,  7-H ) :   0.9676
B(  0-C ,  8-H ) :   0.9533 B(  1-C ,  2-C ) :   1.0195 B(  1-C ,  3-C ) :   1.0276
B(  1-C ,  4-C ) :   0.9913 B(  2-C ,  9-H ) :   0.9655 B(  2-C , 10-H ) :   0.9689
B(  2-C , 11-H ) :   0.9538 B(  3-C , 12-H ) :   0.9646 B(  3-C , 13-H ) :   0.9634
B(  3-C , 14-H ) :   0.9661 B(  4-C ,  5-Br) :   0.9921 B(  4-C , 15-H ) :   0.9474
B(  4-C , 16-H ) :   0.9479

Dispersion correction           -0.016179322
FINAL SINGLE POINT ENERGY     -5344.061547313941

DIPOLE MOMENT
-------------
                                X             Y             Z
Electronic contribution:     29.28027      23.07381      16.16270
Nuclear contribution   :    -31.11638     -25.03200     -21.29439
                        -----------------------------------------
Total Dipole Moment    :     -1.83611      -1.95819      -5.13169
                        -----------------------------------------
Magnitude (a.u.)       :      5.79138
Magnitude (Debye)      :     14.72051

Dispersion correction in the Hessian             ... done   (      0.9 sec)

VIBRATIONAL FREQUENCIES
-----------------------

Scaling factor for frequencies =  1.000000000  (already applied!)

   0:         0.00 cm**-1
   1:         0.00 cm**-1
   2:         0.00 cm**-1
   3:         0.00 cm**-1
   4:         0.00 cm**-1
   5:         0.00 cm**-1
   6:       -28.69 cm**-1 ***imaginary mode***
   7:        14.66 cm**-1
   8:        31.49 cm**-1
   9:        96.36 cm**-1
  10:       173.34 cm**-1
  11:       223.86 cm**-1
  12:       262.23 cm**-1
  13:       274.19 cm**-1
  14:       289.98 cm**-1
  15:       331.43 cm**-1
  16:       384.32 cm**-1
  17:       408.12 cm**-1
  18:       455.89 cm**-1
  19:       665.27 cm**-1
  20:       767.53 cm**-1
  21:       856.71 cm**-1
  22:       928.23 cm**-1
  23:       948.89 cm**-1
  24:       951.00 cm**-1
  25:       953.99 cm**-1
  26:      1032.97 cm**-1
  27:      1034.00 cm**-1
  28:      1132.43 cm**-1
  29:      1204.73 cm**-1
  30:      1273.93 cm**-1
  31:      1285.72 cm**-1
  32:      1297.05 cm**-1
  33:      1369.88 cm**-1
  34:      1378.54 cm**-1
  35:      1393.30 cm**-1
  36:      1425.33 cm**-1
  37:      1435.64 cm**-1
  38:      1441.67 cm**-1
  39:      1443.00 cm**-1
  40:      1461.03 cm**-1
  41:      1462.26 cm**-1
  42:      1476.00 cm**-1
  43:      3040.05 cm**-1
  44:      3040.63 cm**-1
  45:      3044.64 cm**-1
  46:      3108.67 cm**-1
  47:      3137.70 cm**-1
  48:      3138.39 cm**-1
  49:      3139.44 cm**-1
  50:      3144.54 cm**-1
  51:      3147.67 cm**-1
  52:      3149.56 cm**-1
  53:      3190.09 cm**-1

IR SPECTRUM
-----------

 Mode    freq (cm**-1)   T**2         TX         TY         TZ
-------------------------------------------------------------------
   7:        14.66    1.200226  ( -0.741282  -0.484004   0.645342)
   8:        31.49   12.671726  ( -1.203682  -1.254845  -3.106162)
   9:        96.36    1.384135  (  0.714444  -0.911881   0.205373)
  10:       173.34    0.931429  ( -0.691236  -0.373356   0.560559)
  11:       223.86    0.008905  (  0.033749  -0.024229   0.084727)
  12:       262.23    4.096080  (  1.038738   0.886324   1.493831)
  13:       274.19    0.062623  ( -0.188105   0.161001  -0.036303)
  14:       289.98    0.910382  (  0.758626   0.566066  -0.120152)
  15:       331.43    0.230171  (  0.294460  -0.372755   0.067219)
  16:       384.32    0.059726  (  0.137993   0.118364   0.163321)
  17:       408.12    0.965972  (  0.586773  -0.775958   0.139850)
  18:       455.89    3.152945  ( -1.399676  -1.088444  -0.095622)
  19:       665.27   49.274168  ( -5.586548  -4.174428  -0.799249)
  20:       767.53    8.215382  ( -2.326048  -1.673449   0.066710)
  21:       856.71    2.262303  ( -0.934380   1.166893  -0.166129)
  22:       928.23   23.974359  (  3.887986   2.521298  -1.581448)
  23:       948.89    2.150516  (  0.454457   0.437630  -1.323807)
  24:       951.00    2.309412  (  0.939353  -1.194569   0.005702)
  25:       953.99    0.031354  ( -0.159035   0.077469   0.007808)
  26:      1032.97    1.028882  ( -0.862568   0.215798  -0.488150)
  27:      1034.00    1.866532  (  0.598668   1.050307   0.636382)
  28:      1132.43    1.767516  (  0.703567  -1.121844   0.118217)
  29:      1204.73   35.731182  ( -4.563923  -3.551163  -1.513615)
  30:      1273.93   26.419170  (  3.903723   3.154059   1.109967)
  31:      1285.72   12.327667  ( -1.067942  -0.285903   3.332480)
  32:      1297.05    2.533118  (  0.850699  -1.311677   0.298217)
  33:      1369.88   11.256537  (  1.002328   1.495535   2.831122)
  34:      1378.54   17.614062  ( -2.642561   3.215695  -0.538739)
  35:      1393.30   14.046691  ( -1.866230  -1.142346   3.042848)
  36:      1425.33    6.076314  (  1.595795   0.902817  -1.647627)
  37:      1435.64    0.190438  ( -0.198038   0.379687   0.084002)
  38:      1441.67    0.194361  ( -0.294899  -0.219673  -0.243187)
  39:      1443.00    0.010868  ( -0.091934   0.006437   0.048729)
  40:      1461.03   21.489238  (  2.927762   0.337017   3.578249)
  41:      1462.26   14.887362  (  0.051282  -3.362117  -1.892328)
  42:      1476.00   23.991159  ( -1.891439  -0.655570   4.470330)
  43:      3040.05   48.388740  ( -3.302876   6.109367   0.394183)
  44:      3040.63   25.180294  ( -3.683430   0.500975  -3.370706)
  45:      3044.64   22.987887  (  3.611705   3.151612   0.104001)
  46:      3108.67   17.830510  (  1.248253   1.585883   3.709090)
  47:      3137.70    6.849269  (  0.021652  -1.384804   2.220612)
  48:      3138.39   28.681716  (  3.453127  -0.433777  -4.070561)
  49:      3139.44   50.184145  (  2.747953  -5.770063   3.056023)
  50:      3144.54   44.875149  ( -3.688999   0.430540   5.575040)
  51:      3147.67    2.849764  (  0.265021  -1.616282  -0.408855)
  52:      3149.56   15.003558  (  3.003457   2.225770  -1.014273)
  53:      3190.09    5.500715  ( -1.381879   1.876083  -0.267277)

--------------------------
THERMOCHEMISTRY AT 298.15K
--------------------------

Temperature         ... 298.15 K
Pressure            ... 1.00 atm
Total Mass          ... 230.94 AMU

Throughout the following assumptions are being made:
  (1) The electronic state is orbitally nondegenerate
  (2) There are no thermally accessible electronically excited states
  (3) Hindered rotations indicated by low frequency modes are not
      treated as such but are treated as vibrations and this may
      cause some error
  (4) All equations used are the standard statistical mechanics
      equations for an ideal gas
  (5) All vibrations are strictly harmonic

freq.      14.66  E(vib)   ...       0.57
freq.      31.49  E(vib)   ...       0.55
freq.      96.36  E(vib)   ...       0.47
freq.     173.34  E(vib)   ...       0.38
freq.     223.86  E(vib)   ...       0.33
freq.     262.23  E(vib)   ...       0.29
freq.     274.19  E(vib)   ...       0.28
freq.     289.98  E(vib)   ...       0.27
freq.     331.43  E(vib)   ...       0.24
freq.     384.32  E(vib)   ...       0.20
freq.     408.12  E(vib)   ...       0.19
freq.     455.89  E(vib)   ...       0.16
freq.     665.27  E(vib)   ...       0.08
freq.     767.53  E(vib)   ...       0.06
freq.     856.71  E(vib)   ...       0.04
freq.     928.23  E(vib)   ...       0.03
freq.     948.89  E(vib)   ...       0.03
freq.     951.00  E(vib)   ...       0.03
freq.     953.99  E(vib)   ...       0.03
freq.    1032.97  E(vib)   ...       0.02
freq.    1034.00  E(vib)   ...       0.02
freq.    1132.43  E(vib)   ...       0.01
freq.    1204.73  E(vib)   ...       0.01
freq.    1273.93  E(vib)   ...       0.01
freq.    1285.72  E(vib)   ...       0.01
freq.    1297.05  E(vib)   ...       0.01
freq.    1369.88  E(vib)   ...       0.01
freq.    1378.54  E(vib)   ...       0.01
freq.    1393.30  E(vib)   ...       0.00
freq.    1425.33  E(vib)   ...       0.00
freq.    1435.64  E(vib)   ...       0.00
freq.    1441.67  E(vib)   ...       0.00
freq.    1443.00  E(vib)   ...       0.00
freq.    1461.03  E(vib)   ...       0.00
freq.    1462.26  E(vib)   ...       0.00
freq.    1476.00  E(vib)   ...       0.00
freq.    3040.05  E(vib)   ...       0.00
freq.    3040.63  E(vib)   ...       0.00
freq.    3044.64  E(vib)   ...       0.00
freq.    3108.67  E(vib)   ...       0.00
freq.    3137.70  E(vib)   ...       0.00
freq.    3138.39  E(vib)   ...       0.00
freq.    3139.44  E(vib)   ...       0.00
freq.    3144.54  E(vib)   ...       0.00
freq.    3147.67  E(vib)   ...       0.00
freq.    3149.56  E(vib)   ...       0.00
freq.    3190.09  E(vib)   ...       0.00

------------
INNER ENERGY
------------

The inner energy is: U= E(el) + E(ZPE) + E(vib) + E(rot) + E(trans)
    E(el)   - is the total energy from the electronic structure calculation
              = E(kin-el) + E(nuc-el) + E(el-el) + E(nuc-nuc)
    E(ZPE)  - the the zero temperature vibrational energy from the frequency calculation
    E(vib)  - the the finite temperature correction to E(ZPE) due to population
              of excited vibrational states
    E(rot)  - is the rotational thermal energy
    E(trans)- is the translational thermal energy

Summary of contributions to the inner energy U:
Electronic energy                ...  -5344.06154731 Eh
Zero point energy                ...      0.15000899 Eh      94.13 kcal/mol
Thermal vibrational correction   ...      0.00694533 Eh       4.36 kcal/mol
Thermal rotational correction    ...      0.00141627 Eh       0.89 kcal/mol
Thermal translational correction ...      0.00141627 Eh       0.89 kcal/mol
-----------------------------------------------------------------------
Total thermal energy                  -5343.90176045 Eh

Summary of corrections to the electronic energy:
(perhaps to be used in another calculation)
Total thermal correction                  0.00977787 Eh       6.14 kcal/mol
Non-thermal (ZPE) correction              0.15000899 Eh      94.13 kcal/mol
-----------------------------------------------------------------------
Total correction                          0.15978687 Eh     100.27 kcal/mol

--------
ENTHALPY
--------

The enthalpy is H = U + kB*T
                kB is Boltzmann's constant
Total free energy                 ...  -5343.90176045 Eh
Thermal Enthalpy correction       ...      0.00094421 Eh       0.59 kcal/mol
-----------------------------------------------------------------------
Total Enthalpy                    ...  -5343.90081624 Eh

Note: Only C1 symmetry has been detected, increase convergence thresholds
      if your molecule has a higher symmetry. Symmetry factor of 1.0 is
      used for the rotational entropy correction.

Note: Rotational entropy computed according to Herzberg
Infrared and Raman Spectra, Chapter V,1, Van Nostrand Reinhold, 1945
Point Group:  C1, Symmetry Number:   1
Rotational constants in cm-1:     0.038975     0.014589     0.011435

Vibrational entropy computed according to the QRRHO of S. Grimme
Chem.Eur.J. 2012 18 9955

-------
ENTROPY
-------

The entropy contributions are T*S = T*(S(el)+S(vib)+S(rot)+S(trans))
     S(el)   - electronic entropy
     S(vib)  - vibrational entropy
     S(rot)  - rotational entropy
     S(trans)- translational entropy
The entropies will be listed as mutliplied by the temperature to get
units of energy

Electronic entropy                ...      0.00000000 Eh      0.00 kcal/mol
Vibrational entropy               ...      0.01269488 Eh      7.97 kcal/mol
Rotational entropy                ...      0.01514919 Eh      9.51 kcal/mol
Translational entropy             ...      0.02005666 Eh     12.59 kcal/mol
-----------------------------------------------------------------------
Final entropy term                ...      0.04790073 Eh     30.06 kcal/mol

In case the symmetry of your molecule has not been determined correctly
or in case you have a reason to use a different symmetry number we print
out the resulting rotational entropy values for sn=1,12 :
 --------------------------------------------------------
|  sn= 1 | S(rot)=       0.01514919 Eh      9.51 kcal/mol|
|  sn= 2 | S(rot)=       0.01449473 Eh      9.10 kcal/mol|
|  sn= 3 | S(rot)=       0.01411190 Eh      8.86 kcal/mol|
|  sn= 4 | S(rot)=       0.01384027 Eh      8.68 kcal/mol|
|  sn= 5 | S(rot)=       0.01362959 Eh      8.55 kcal/mol|
|  sn= 6 | S(rot)=       0.01345744 Eh      8.44 kcal/mol|
|  sn= 7 | S(rot)=       0.01331190 Eh      8.35 kcal/mol|
|  sn= 8 | S(rot)=       0.01318582 Eh      8.27 kcal/mol|
|  sn= 9 | S(rot)=       0.01307461 Eh      8.20 kcal/mol|
|  sn=10 | S(rot)=       0.01297513 Eh      8.14 kcal/mol|
|  sn=11 | S(rot)=       0.01288514 Eh      8.09 kcal/mol|
|  sn=12 | S(rot)=       0.01280299 Eh      8.03 kcal/mol|
 --------------------------------------------------------

-------------------

                             ****ORCA TERMINATED NORMALLY****
TOTAL RUN TIME: 0 days 0 hours 2 minutes 23 seconds 758 msec
