                         Program Version 4.2.1 -  RELEASE  -
|  1> ! Freq PBE0 RIJCOSX D3BJ def2-SVP def2/J CPCM(Acetone)
|  2> %geom MaxIter 100 end
|  3> %output
|  4> xyzfile=True
|  5> end
|  6> %scf
|  7> maxiter 250
|  8> end
|  9> %output
| 10> Print[P_Hirshfeld] = 1
| 11> end
| 12> % maxcore
| 13> 4000
| 14> %pal nprocs 4
| 15> end
| 16> *xyz -1 1
| 17>   C   -1.42840276573358     -0.23928733852081     -0.40652965775584
| 18>   Br  0.28236299511026      0.29829143538114     -1.15106402809382
| 19>   H   -1.71347848741789     -1.19380355924790     -0.86331038558278
| 20>   H   -2.15781426466232      0.54076385868963     -0.64989694071891
| 21>   H   -1.27944221437355     -0.34211653559927      0.67730522375387
| 22>   Br  0.25436473707708     -0.62516786070279      3.13082578839748
| 23> *
| 24>
| 25>                          ****END OF INPUT****

CARTESIAN COORDINATES (ANGSTROEM)
---------------------------------
  C     -1.428403   -0.239287   -0.406530
  Br     0.282363    0.298291   -1.151064
  H     -1.713478   -1.193804   -0.863310
  H     -2.157814    0.540764   -0.649897
  H     -1.279442   -0.342117    0.677305
  Br     0.254365   -0.625168    3.130826

 Total Charge           Charge          ....   -1
 Multiplicity           Mult            ....    1
 Number of Electrons    NEL             ....   80
 Basis Dimension        Dim             ....   93

ORBITAL ENERGIES
----------------

  NO   OCC          E(Eh)            E(eV)
   0   2.0000    -483.173487    -13147.8190
   1   2.0000    -483.063217    -13144.8184
   2   2.0000     -62.609816     -1703.6997
   3   2.0000     -62.498477     -1700.6700
   4   2.0000     -56.399042     -1534.6959
   5   2.0000     -56.396652     -1534.6309
   6   2.0000     -56.396617     -1534.6300
   7   2.0000     -56.286449     -1531.6321
   8   2.0000     -56.286424     -1531.6315
   9   2.0000     -56.286049     -1531.6213
  10   2.0000     -10.266532      -279.3666
  11   2.0000      -8.755208      -238.2413
  12   2.0000      -8.641959      -235.1597
  13   2.0000      -6.569857      -178.7749
  14   2.0000      -6.557221      -178.4311
  15   2.0000      -6.557063      -178.4268
  16   2.0000      -6.448494      -175.4725
  17   2.0000      -6.448200      -175.4644
  18   2.0000      -6.448108      -175.4619
  19   2.0000      -2.655379       -72.2565
  20   2.0000      -2.651863       -72.1608
  21   2.0000      -2.651702       -72.1565
  22   2.0000      -2.641463       -71.8779
  23   2.0000      -2.641454       -71.8776
  24   2.0000      -2.535282       -68.9885
  25   2.0000      -2.535265       -68.9881
  26   2.0000      -2.535166       -68.9854
  27   2.0000      -2.534965       -68.9799
  28   2.0000      -2.534955       -68.9796
  29   2.0000      -0.812303       -22.1039
  30   2.0000      -0.664152       -18.0725
  31   2.0000      -0.651354       -17.7242
  32   2.0000      -0.436059       -11.8658
  33   2.0000      -0.434435       -11.8216
  34   2.0000      -0.386783       -10.5249
  35   2.0000      -0.281913        -7.6712
  36   2.0000      -0.280613        -7.6359
  37   2.0000      -0.215135        -5.8541
  38   2.0000      -0.214891        -5.8475
  39   2.0000      -0.213075        -5.7981
  40   0.0000       0.025671         0.6985
  41   0.0000       0.111537         3.0351
  42   0.0000       0.149700         4.0736
  43   0.0000       0.168567         4.5869
  44   0.0000       0.356344         9.6966

MULLIKEN ATOMIC CHARGES
-----------------------
   0 C :   -0.142264
   1 Br:   -0.224847
   2 H :    0.108399
   3 H :    0.112474
   4 H :    0.094523
   5 Br:   -0.948285
Sum of atomic charges:   -1.0000000

LOEWDIN ATOMIC CHARGES
----------------------
   0 C :   -0.115129
   1 Br:   -0.034978
   2 H :    0.041677
   3 H :    0.041551
   4 H :    0.019502
   5 Br:   -0.952624

  Mayer bond orders larger than 0.100000
B(  0-C ,  1-Br) :   0.9853 B(  0-C ,  2-H ) :   0.9686 B(  0-C ,  3-H ) :   0.9678
B(  0-C ,  4-H ) :   0.9405 B(  4-H ,  5-Br) :   0.1114

Dispersion correction           -0.003299918
FINAL SINGLE POINT ENERGY     -5187.095728387523

DIPOLE MOMENT
-------------
                                X             Y             Z
Electronic contribution:      6.99553       1.16899       1.74182
Nuclear contribution   :     -7.96518      -0.60159      -5.42741
                        -----------------------------------------
Total Dipole Moment    :     -0.96965       0.56740      -3.68559
                        -----------------------------------------
Magnitude (a.u.)       :      3.85302
Magnitude (Debye)      :      9.79360

Dispersion correction in the Hessian             ... done   (      0.3 sec)

VIBRATIONAL FREQUENCIES
-----------------------

Scaling factor for frequencies =  1.000000000  (already applied!)

   0:         0.00 cm**-1
   1:         0.00 cm**-1
   2:         0.00 cm**-1
   3:         0.00 cm**-1
   4:         0.00 cm**-1
   5:         0.00 cm**-1
   6:        26.35 cm**-1
   7:        70.04 cm**-1
   8:       115.16 cm**-1
   9:       613.33 cm**-1
  10:       960.72 cm**-1
  11:       978.75 cm**-1
  12:      1305.87 cm**-1
  13:      1420.71 cm**-1
  14:      1439.78 cm**-1
  15:      3069.79 cm**-1
  16:      3208.94 cm**-1
  17:      3232.29 cm**-1

IR SPECTRUM
-----------

 Mode    freq (cm**-1)   T**2         TX         TY         TZ
-------------------------------------------------------------------
   6:        26.35    2.317747  (  0.363126   0.402009  -1.422770)
   7:        70.04   19.099530  (  1.662672  -0.448902   4.016658)
   8:       115.16    0.151843  (  0.184685  -0.251691   0.233209)
   9:       613.33   20.401059  (  3.985429   1.226586  -1.735770)
  10:       960.72    6.514632  ( -0.766743   2.432652  -0.094569)
  11:       978.75   22.362246  (  1.655603  -0.134397   4.427546)
  12:      1305.87   36.561582  (  3.884983   1.972944  -4.192372)
  13:      1420.71    5.219809  (  0.694972   0.620552   2.086082)
  14:      1439.78   10.235974  ( -1.409088   2.800597  -0.638046)
  15:      3069.79   48.166107  ( -5.489514  -0.349250  -4.231946)
  16:      3208.94   31.785058  ( -0.998777   1.087057  -5.441122)
  17:      3232.29    0.785815  (  0.083085   0.305128   0.828136)

--------------------------
THERMOCHEMISTRY AT 298.15K
--------------------------

Temperature         ... 298.15 K
Pressure            ... 1.00 atm
Total Mass          ... 174.83 AMU

Throughout the following assumptions are being made:
  (1) The electronic state is orbitally nondegenerate
  (2) There are no thermally accessible electronically excited states
  (3) Hindered rotations indicated by low frequency modes are not
      treated as such but are treated as vibrations and this may
      cause some error
  (4) All equations used are the standard statistical mechanics
      equations for an ideal gas
  (5) All vibrations are strictly harmonic

freq.      26.35  E(vib)   ...       0.56
freq.      70.04  E(vib)   ...       0.50
freq.     115.16  E(vib)   ...       0.44
freq.     613.33  E(vib)   ...       0.10
freq.     960.72  E(vib)   ...       0.03
freq.     978.75  E(vib)   ...       0.03
freq.    1305.87  E(vib)   ...       0.01
freq.    1420.71  E(vib)   ...       0.00
freq.    1439.78  E(vib)   ...       0.00
freq.    3069.79  E(vib)   ...       0.00
freq.    3208.94  E(vib)   ...       0.00
freq.    3232.29  E(vib)   ...       0.00

------------
INNER ENERGY
------------

The inner energy is: U= E(el) + E(ZPE) + E(vib) + E(rot) + E(trans)
    E(el)   - is the total energy from the electronic structure calculation
              = E(kin-el) + E(nuc-el) + E(el-el) + E(nuc-nuc)
    E(ZPE)  - the the zero temperature vibrational energy from the frequency calculation
    E(vib)  - the the finite temperature correction to E(ZPE) due to population
              of excited vibrational states
    E(rot)  - is the rotational thermal energy
    E(trans)- is the translational thermal energy

Summary of contributions to the inner energy U:
Electronic energy                ...  -5187.09572839 Eh
Zero point energy                ...      0.03745704 Eh      23.50 kcal/mol
Thermal vibrational correction   ...      0.00264482 Eh       1.66 kcal/mol
Thermal rotational correction    ...      0.00141627 Eh       0.89 kcal/mol
Thermal translational correction ...      0.00141627 Eh       0.89 kcal/mol
-----------------------------------------------------------------------
Total thermal energy                  -5187.05279399 Eh

Summary of corrections to the electronic energy:
(perhaps to be used in another calculation)
Total thermal correction                  0.00547736 Eh       3.44 kcal/mol
Non-thermal (ZPE) correction              0.03745704 Eh      23.50 kcal/mol
-----------------------------------------------------------------------
Total correction                          0.04293440 Eh      26.94 kcal/mol

--------
ENTHALPY
--------

The enthalpy is H = U + kB*T
                kB is Boltzmann's constant
Total free energy                 ...  -5187.05279399 Eh
Thermal Enthalpy correction       ...      0.00094421 Eh       0.59 kcal/mol
-----------------------------------------------------------------------
Total Enthalpy                    ...  -5187.05184978 Eh

Note: Only C1 symmetry has been detected, increase convergence thresholds
      if your molecule has a higher symmetry. Symmetry factor of 1.0 is
      used for the rotational entropy correction.

Note: Rotational entropy computed according to Herzberg
Infrared and Raman Spectra, Chapter V,1, Van Nostrand Reinhold, 1945
Point Group:  C1, Symmetry Number:   1
Rotational constants in cm-1:     0.370895     0.021216     0.020146

Vibrational entropy computed according to the QRRHO of S. Grimme
Chem.Eur.J. 2012 18 9955

-------
ENTROPY
-------

The entropy contributions are T*S = T*(S(el)+S(vib)+S(rot)+S(trans))
     S(el)   - electronic entropy
     S(vib)  - vibrational entropy
     S(rot)  - rotational entropy
     S(trans)- translational entropy
The entropies will be listed as mutliplied by the temperature to get
units of energy

Electronic entropy                ...      0.00000000 Eh      0.00 kcal/mol
Vibrational entropy               ...      0.00536462 Eh      3.37 kcal/mol
Rotational entropy                ...      0.01364140 Eh      8.56 kcal/mol
Translational entropy             ...      0.01966247 Eh     12.34 kcal/mol
-----------------------------------------------------------------------
Final entropy term                ...      0.03866850 Eh     24.26 kcal/mol

In case the symmetry of your molecule has not been determined correctly
or in case you have a reason to use a different symmetry number we print
out the resulting rotational entropy values for sn=1,12 :
 --------------------------------------------------------
|  sn= 1 | S(rot)=       0.01364140 Eh      8.56 kcal/mol|
|  sn= 2 | S(rot)=       0.01298695 Eh      8.15 kcal/mol|
|  sn= 3 | S(rot)=       0.01260411 Eh      7.91 kcal/mol|
|  sn= 4 | S(rot)=       0.01233249 Eh      7.74 kcal/mol|
|  sn= 5 | S(rot)=       0.01212180 Eh      7.61 kcal/mol|
|  sn= 6 | S(rot)=       0.01194966 Eh      7.50 kcal/mol|
|  sn= 7 | S(rot)=       0.01180411 Eh      7.41 kcal/mol|
|  sn= 8 | S(rot)=       0.01167803 Eh      7.33 kcal/mol|
|  sn= 9 | S(rot)=       0.01156682 Eh      7.26 kcal/mol|
|  sn=10 | S(rot)=       0.01146734 Eh      7.20 kcal/mol|
|  sn=11 | S(rot)=       0.01137735 Eh      7.14 kcal/mol|
|  sn=12 | S(rot)=       0.01129520 Eh      7.09 kcal/mol|
 --------------------------------------------------------

-------------------
GIBBS FREE ENERGY
-------------------

The Gibbs free energy is G = H - T*S

Total enthalpy                    ...  -5187.05184978 Eh
Total entropy correction          ...     -0.03866850 Eh    -24.26 kcal/mol
-----------------------------------------------------------------------
Final Gibbs free energy         ...  -5187.09051828 Eh

For completeness - the Gibbs free energy minus the electronic energy
G-E(el)                           ...      0.00521011 Eh      3.27 kcal/mol

                             ****ORCA TERMINATED NORMALLY****
TOTAL RUN TIME: 0 days 0 hours 0 minutes 25 seconds 108 msec
