                         Program Version 4.2.1 -  RELEASE  -
|  1> ! Freq PBE0 RIJCOSX D3BJ def2-SVP def2/J CPCM(Acetone)
|  2> %geom MaxIter 100 end
|  3> %output
|  4> xyzfile=True
|  5> end
|  6> %scf
|  7> maxiter 250
|  8> end
|  9> %output
| 10> Print[P_Hirshfeld] = 1
| 11> end
| 12> % maxcore
| 13> 4000
| 14> %pal nprocs 4
| 15> end
| 16> *xyz -1 1
| 17>   C   -0.96627600837687      0.77491043313378     -2.34534068571402
| 18>   Br  -1.67541206703322     -0.98924809414325     -1.96583047749147
| 19>   H   -1.23147942200114      1.42570172821614     -1.50620289870733
| 20>   H   -1.41411626918291      1.12212640844627     -3.28222603917276
| 21>   H   0.12202883980846      0.68473373992932     -2.42775999089178
| 22>   I   1.06618492678568      0.61553578441774      1.22502009197736
| 23> *
| 24>
| 25>                          ****END OF INPUT****

CARTESIAN COORDINATES (ANGSTROEM)
---------------------------------
  C     -0.966276    0.774910   -2.345341
  Br    -1.675412   -0.989248   -1.965830
  H     -1.231479    1.425702   -1.506203
  H     -1.414116    1.122126   -3.282226
  H      0.122029    0.684734   -2.427760
  I      1.066185    0.615536    1.225020

 Total Charge           Charge          ....   -1
 Multiplicity           Mult            ....    1
 Number of Electrons    NEL             ....   70
 Basis Dimension        Dim             ....   87

ORBITAL ENERGIES
----------------

  NO   OCC          E(Eh)            E(eV)
   0   2.0000    -483.174355    -13147.8426
   1   2.0000     -62.610682     -1703.7233
   2   2.0000     -56.399927     -1534.7200
   3   2.0000     -56.397523     -1534.6546
   4   2.0000     -56.397445     -1534.6525
   5   2.0000     -10.269235      -279.4401
   6   2.0000      -8.756098      -238.2655
   7   2.0000      -6.799991      -185.0372
   8   2.0000      -6.570814      -178.8009
   9   2.0000      -6.558085      -178.4546
  10   2.0000      -6.557917      -178.4500
  11   2.0000      -4.807570      -130.8206
  12   2.0000      -4.807506      -130.8189
  13   2.0000      -4.807328      -130.8140
  14   2.0000      -2.656289       -72.2813
  15   2.0000      -2.652795       -72.1862
  16   2.0000      -2.652668       -72.1828
  17   2.0000      -2.642302       -71.9007
  18   2.0000      -2.642288       -71.9003
  19   2.0000      -1.834768       -49.9266
  20   2.0000      -1.834763       -49.9264
  21   2.0000      -1.834599       -49.9220
  22   2.0000      -1.834524       -49.9199
  23   2.0000      -1.834482       -49.9188
  24   2.0000      -0.814070       -22.1520
  25   2.0000      -0.666104       -18.1256
  26   2.0000      -0.605075       -16.4649
  27   2.0000      -0.438636       -11.9359
  28   2.0000      -0.436126       -11.8676
  29   2.0000      -0.389030       -10.5861
  30   2.0000      -0.282427        -7.6852
  31   2.0000      -0.281850        -7.6695
  32   2.0000      -0.214130        -5.8268
  33   2.0000      -0.213588        -5.8120
  34   2.0000      -0.210776        -5.7355
  35   0.0000       0.024937         0.6786
  36   0.0000       0.106941         2.9100
  37   0.0000       0.148838         4.0501
  38   0.0000       0.149594         4.0707
  39   0.0000       0.303799         8.2668

MULLIKEN ATOMIC CHARGES
-----------------------
   0 C :   -0.122044
   1 Br:   -0.221942
   2 H :    0.110713
   3 H :    0.108054
   4 H :    0.111812
   5 I :   -0.986593
Sum of atomic charges:   -1.0000000

LOEWDIN ATOMIC CHARGES
----------------------
   0 C :   -0.108245
   1 Br:   -0.029944
   2 H :    0.039250
   3 H :    0.040689
   4 H :    0.040880
   5 I :   -0.982630

  Mayer bond orders larger than 0.100000
B(  0-C ,  1-Br) :   0.9817 B(  0-C ,  2-H ) :   0.9667 B(  0-C ,  3-H ) :   0.9680
B(  0-C ,  4-H ) :   0.9677

Dispersion correction           -0.003617375
FINAL SINGLE POINT ENERGY     -2911.272349016022

DIPOLE MOMENT
-------------
                                X             Y             Z
Electronic contribution:     66.95255      28.06860      87.85554
Nuclear contribution   :    -68.69293     -28.29428     -90.59350
                        -----------------------------------------
Total Dipole Moment    :     -1.74038      -0.22568      -2.73796
                        -----------------------------------------
Magnitude (a.u.)       :      3.25212
Magnitude (Debye)      :      8.26622

Dispersion correction in the Hessian             ... done   (      0.4 sec)

VIBRATIONAL FREQUENCIES
-----------------------

Scaling factor for frequencies =  1.000000000  (already applied!)

   0:         0.00 cm**-1
   1:         0.00 cm**-1
   2:         0.00 cm**-1
   3:         0.00 cm**-1
   4:         0.00 cm**-1
   5:         0.00 cm**-1
   6:      -122.20 cm**-1 ***imaginary mode***
   7:        25.60 cm**-1
   8:        64.74 cm**-1
   9:       617.26 cm**-1
  10:       957.25 cm**-1
  11:       959.17 cm**-1
  12:      1302.78 cm**-1
  13:      1415.98 cm**-1
  14:      1418.03 cm**-1
  15:      3100.91 cm**-1
  16:      3241.45 cm**-1
  17:      3245.16 cm**-1

IR SPECTRUM
-----------

 Mode    freq (cm**-1)   T**2         TX         TY         TZ
-------------------------------------------------------------------
   7:        25.60    1.008307  (  0.617962   0.599573   0.516664)
   8:        64.74    9.999898  ( -1.608774   0.096887  -2.720727)
   9:       617.26   20.509251  ( -1.653516  -4.122145   0.884906)
  10:       957.25   13.050241  (  1.740105  -0.175694   3.160919)
  11:       959.17    8.423543  ( -2.301210   1.279615   1.220886)
  12:      1302.78   29.017743  ( -2.252741  -4.858570   0.580688)
  13:      1415.98   17.579311  (  3.515978  -1.777844  -1.434044)
  14:      1418.03   33.455734  (  2.699795  -0.389932   5.100470)
  15:      3100.91   14.030531  ( -0.934770  -3.367907   1.346825)
  16:      3241.45    0.185368  (  0.074856   0.025736  -0.423205)
  17:      3245.16    0.041158  (  0.113877  -0.156539   0.060707)

--------------------------
THERMOCHEMISTRY AT 298.15K
--------------------------

Temperature         ... 298.15 K
Pressure            ... 1.00 atm
Total Mass          ... 221.83 AMU

Throughout the following assumptions are being made:
  (1) The electronic state is orbitally nondegenerate
  (2) There are no thermally accessible electronically excited states
  (3) Hindered rotations indicated by low frequency modes are not
      treated as such but are treated as vibrations and this may
      cause some error
  (4) All equations used are the standard statistical mechanics
      equations for an ideal gas
  (5) All vibrations are strictly harmonic

freq.      25.60  E(vib)   ...       0.56
freq.      64.74  E(vib)   ...       0.50
freq.     617.26  E(vib)   ...       0.09
freq.     957.25  E(vib)   ...       0.03
freq.     959.17  E(vib)   ...       0.03
freq.    1302.78  E(vib)   ...       0.01
freq.    1415.98  E(vib)   ...       0.00
freq.    1418.03  E(vib)   ...       0.00
freq.    3100.91  E(vib)   ...       0.00
freq.    3241.45  E(vib)   ...       0.00
freq.    3245.16  E(vib)   ...       0.00

------------
INNER ENERGY
------------

The inner energy is: U= E(el) + E(ZPE) + E(vib) + E(rot) + E(trans)
    E(el)   - is the total energy from the electronic structure calculation
              = E(kin-el) + E(nuc-el) + E(el-el) + E(nuc-nuc)
    E(ZPE)  - the the zero temperature vibrational energy from the frequency calculation
    E(vib)  - the the finite temperature correction to E(ZPE) due to population
              of excited vibrational states
    E(rot)  - is the rotational thermal energy
    E(trans)- is the translational thermal energy

Summary of contributions to the inner energy U:
Electronic energy                ...  -2911.27234902 Eh
Zero point energy                ...      0.03724426 Eh      23.37 kcal/mol
Thermal vibrational correction   ...      0.00195369 Eh       1.23 kcal/mol
Thermal rotational correction    ...      0.00141627 Eh       0.89 kcal/mol
Thermal translational correction ...      0.00141627 Eh       0.89 kcal/mol
-----------------------------------------------------------------------
Total thermal energy                  -2911.23031853 Eh

Summary of corrections to the electronic energy:
(perhaps to be used in another calculation)
Total thermal correction                  0.00478623 Eh       3.00 kcal/mol
Non-thermal (ZPE) correction              0.03724426 Eh      23.37 kcal/mol
-----------------------------------------------------------------------
Total correction                          0.04203048 Eh      26.37 kcal/mol

--------
ENTHALPY
--------

The enthalpy is H = U + kB*T
                kB is Boltzmann's constant
Total free energy                 ...  -2911.23031853 Eh
Thermal Enthalpy correction       ...      0.00094421 Eh       0.59 kcal/mol
-----------------------------------------------------------------------
Total Enthalpy                    ...  -2911.22937432 Eh

Note: Only C1 symmetry has been detected, increase convergence thresholds
      if your molecule has a higher symmetry. Symmetry factor of 1.0 is
      used for the rotational entropy correction.

Note: Rotational entropy computed according to Herzberg
Infrared and Raman Spectra, Chapter V,1, Van Nostrand Reinhold, 1945
Point Group:  C1, Symmetry Number:   1
Rotational constants in cm-1:     0.362036     0.016017     0.015384

Vibrational entropy computed according to the QRRHO of S. Grimme
Chem.Eur.J. 2012 18 9955

-------
ENTROPY
-------

The entropy contributions are T*S = T*(S(el)+S(vib)+S(rot)+S(trans))
     S(el)   - electronic entropy
     S(vib)  - vibrational entropy
     S(rot)  - rotational entropy
     S(trans)- translational entropy
The entropies will be listed as mutliplied by the temperature to get
units of energy

Electronic entropy                ...      0.00000000 Eh      0.00 kcal/mol
Vibrational entropy               ...      0.00397229 Eh      2.49 kcal/mol
Rotational entropy                ...      0.01391283 Eh      8.73 kcal/mol
Translational entropy             ...      0.01999968 Eh     12.55 kcal/mol
-----------------------------------------------------------------------
Final entropy term                ...      0.03788480 Eh     23.77 kcal/mol

In case the symmetry of your molecule has not been determined correctly
or in case you have a reason to use a different symmetry number we print
out the resulting rotational entropy values for sn=1,12 :
 --------------------------------------------------------
|  sn= 1 | S(rot)=       0.01391283 Eh      8.73 kcal/mol|
|  sn= 2 | S(rot)=       0.01325838 Eh      8.32 kcal/mol|
|  sn= 3 | S(rot)=       0.01287555 Eh      8.08 kcal/mol|
|  sn= 4 | S(rot)=       0.01260392 Eh      7.91 kcal/mol|
|  sn= 5 | S(rot)=       0.01239323 Eh      7.78 kcal/mol|
|  sn= 6 | S(rot)=       0.01222109 Eh      7.67 kcal/mol|
|  sn= 7 | S(rot)=       0.01207554 Eh      7.58 kcal/mol|
|  sn= 8 | S(rot)=       0.01194947 Eh      7.50 kcal/mol|
|  sn= 9 | S(rot)=       0.01183826 Eh      7.43 kcal/mol|
|  sn=10 | S(rot)=       0.01173878 Eh      7.37 kcal/mol|
|  sn=11 | S(rot)=       0.01164879 Eh      7.31 kcal/mol|
|  sn=12 | S(rot)=       0.01156663 Eh      7.26 kcal/mol|
 --------------------------------------------------------

-------------------
GIBBS FREE ENERGY
-------------------

The Gibbs free energy is G = H - T*S

Total enthalpy                    ...  -2911.22937432 Eh
Total entropy correction          ...     -0.03788480 Eh    -23.77 kcal/mol
-----------------------------------------------------------------------
Final Gibbs free energy         ...  -2911.26725912 Eh

For completeness - the Gibbs free energy minus the electronic energy
G-E(el)                           ...      0.00508989 Eh      3.19 kcal/mol

                             ****ORCA TERMINATED NORMALLY****
TOTAL RUN TIME: 0 days 0 hours 0 minutes 29 seconds 318 msec
