                         Program Version 4.2.1 -  RELEASE  -
|  1> ! Freq PBE0 RIJCOSX D3BJ def2-SVP def2/J CPCM(Acetone)
|  2> %geom MaxIter 100 end
|  3> %output
|  4> xyzfile=True
|  5> end
|  6> %scf
|  7> maxiter 250
|  8> end
|  9> %output
| 10> Print[P_Hirshfeld] = 1
| 11> end
| 12> % maxcore
| 13> 4000
| 14> %pal nprocs 4
| 15> end
| 16> *xyz -1 1
| 17>   C   -2.83443589814257      0.34156349432677      0.60791013432083
| 18>   C   -1.77940796266516      0.19670555409679     -0.47955621915518
| 19>   C   -0.41326187417069      0.60765756429434      0.02075187296000
| 20>   Br  0.97479566067299      0.26161000385141     -1.31811452783573
| 21>   H   -3.82006962851169      0.02641349023542      0.23261125855102
| 22>   H   -2.58539069626848     -0.27833322862804      1.48291853345261
| 23>   H   -2.92144451945568      1.38433077822247      0.95288369192354
| 24>   H   -1.73888537161634     -0.85088283203809     -0.81967857510174
| 25>   H   -2.05007443072217      0.80207709037375     -1.35996412570757
| 26>   H   -0.10067852335438      0.04289077819633      0.91285493496357
| 27>   H   -0.35013475327696      1.68367583408518      0.23261854101184
| 28>   Br  0.37840799751115     -1.30253852701632      3.24933448061680
| 29> *
| 30>
| 31>                          ****END OF INPUT****

CARTESIAN COORDINATES (ANGSTROEM)
---------------------------------
  C     -2.834436    0.341563    0.607910
  C     -1.779408    0.196706   -0.479556
  C     -0.413262    0.607658    0.020752
  Br     0.974796    0.261610   -1.318115
  H     -3.820070    0.026413    0.232611
  H     -2.585391   -0.278333    1.482919
  H     -2.921445    1.384331    0.952884
  H     -1.738885   -0.850883   -0.819679
  H     -2.050074    0.802077   -1.359964
  H     -0.100679    0.042891    0.912855
  H     -0.350135    1.683676    0.232619
  Br     0.378408   -1.302539    3.249334

 Total Charge           Charge          ....   -1
 Multiplicity           Mult            ....    1
 Number of Electrons    NEL             ....   96
 Basis Dimension        Dim             ....  141

ORBITAL ENERGIES
----------------

  NO   OCC          E(Eh)            E(eV)
   0   2.0000    -483.170745    -13147.7444
   1   2.0000    -483.066673    -13144.9124
   2   2.0000     -62.607140     -1703.6269
   3   2.0000     -62.501848     -1700.7618
   4   2.0000     -56.396299     -1534.6213
   5   2.0000     -56.394064     -1534.5605
   6   2.0000     -56.393957     -1534.5576
   7   2.0000     -56.289853     -1531.7248
   8   2.0000     -56.289772     -1531.7226
   9   2.0000     -56.289423     -1531.7131
  10   2.0000     -10.267455      -279.3916
  11   2.0000     -10.228889      -278.3422
  12   2.0000     -10.217597      -278.0349
  13   2.0000      -8.752488      -238.1673
  14   2.0000      -8.645305      -235.2507
  15   2.0000      -6.566674      -178.6883
  16   2.0000      -6.554752      -178.3639
  17   2.0000      -6.554591      -178.3595
  18   2.0000      -6.451776      -175.5617
  19   2.0000      -6.451601      -175.5570
  20   2.0000      -6.451453      -175.5530
  21   2.0000      -2.652330       -72.1736
  22   2.0000      -2.648893       -72.0801
  23   2.0000      -2.648777       -72.0769
  24   2.0000      -2.639188       -71.8159
  25   2.0000      -2.639174       -71.8156
  26   2.0000      -2.538598       -69.0788
  27   2.0000      -2.538577       -69.0782
  28   2.0000      -2.538490       -69.0758
  29   2.0000      -2.538367       -69.0725
  30   2.0000      -2.538339       -69.0717
  31   2.0000      -0.830599       -22.6017
  32   2.0000      -0.765814       -20.8388
  33   2.0000      -0.664817       -18.0906
  34   2.0000      -0.654661       -17.8142
  35   2.0000      -0.590718       -16.0743
  36   2.0000      -0.479486       -13.0475
  37   2.0000      -0.439020       -11.9464
  38   2.0000      -0.418230       -11.3806
  39   2.0000      -0.402903       -10.9635
  40   2.0000      -0.356659        -9.7052
  41   2.0000      -0.347695        -9.4612
  42   2.0000      -0.337436        -9.1821
  43   2.0000      -0.281716        -7.6659
  44   2.0000      -0.280349        -7.6287
  45   2.0000      -0.217732        -5.9248
  46   2.0000      -0.217503        -5.9186
  47   2.0000      -0.215171        -5.8551
  48   0.0000       0.023803         0.6477
  49   0.0000       0.094754         2.5784
  50   0.0000       0.120989         3.2923
  51   0.0000       0.134122         3.6497
  52   0.0000       0.138324         3.7640

MULLIKEN ATOMIC CHARGES
-----------------------
   0 C :   -0.089625
   1 C :   -0.082544
   2 C :   -0.126424
   3 Br:   -0.211175
   4 H :    0.051306
   5 H :    0.039558
   6 H :    0.047293
   7 H :    0.052642
   8 H :    0.052753
   9 H :    0.090643
  10 H :    0.100229
  11 Br:   -0.924657
Sum of atomic charges:   -1.0000000

LOEWDIN ATOMIC CHARGES
----------------------
   0 C :   -0.072154
   1 C :   -0.070140
   2 C :   -0.086594
   3 Br:   -0.042484
   4 H :    0.034467
   5 H :    0.025891
   6 H :    0.030585
   7 H :    0.031107
   8 H :    0.030097
   9 H :    0.011421
  10 H :    0.037022
  11 Br:   -0.929217

  Mayer bond orders larger than 0.100000
B(  0-C ,  1-C ) :   1.0886 B(  0-C ,  4-H ) :   0.9680 B(  0-C ,  5-H ) :   0.9656
B(  0-C ,  6-H ) :   0.9714 B(  1-C ,  2-C ) :   1.0398 B(  1-C ,  7-H ) :   0.9482
B(  1-C ,  8-H ) :   0.9507 B(  2-C ,  3-Br) :   0.9774 B(  2-C ,  9-H ) :   0.9147
B(  2-C , 10-H ) :   0.9472 B(  9-H , 11-Br) :   0.1269

Dispersion correction           -0.008586499
FINAL SINGLE POINT ENERGY     -5265.580931571150

DIPOLE MOMENT
-------------
                                X             Y             Z
Electronic contribution:     22.16861      -6.53552       3.40422
Nuclear contribution   :    -23.27717       8.36300      -7.06623
                        -----------------------------------------
Total Dipole Moment    :     -1.10856       1.82748      -3.66200
                        -----------------------------------------
Magnitude (a.u.)       :      4.24015
Magnitude (Debye)      :     10.77760

Dispersion correction in the Hessian             ... done   (      0.6 sec)

VIBRATIONAL FREQUENCIES
-----------------------

Scaling factor for frequencies =  1.000000000  (already applied!)

   0:         0.00 cm**-1
   1:         0.00 cm**-1
   2:         0.00 cm**-1
   3:         0.00 cm**-1
   4:         0.00 cm**-1
   5:         0.00 cm**-1
   6:        15.60 cm**-1
   7:        34.84 cm**-1
   8:        72.58 cm**-1
   9:       123.95 cm**-1
  10:       215.55 cm**-1
  11:       252.20 cm**-1
  12:       311.26 cm**-1
  13:       653.28 cm**-1
  14:       751.53 cm**-1
  15:       857.34 cm**-1
  16:       915.89 cm**-1
  17:      1056.01 cm**-1
  18:      1071.78 cm**-1
  19:      1122.57 cm**-1
  20:      1227.42 cm**-1
  21:      1256.68 cm**-1
  22:      1303.77 cm**-1
  23:      1353.43 cm**-1
  24:      1384.77 cm**-1
  25:      1446.11 cm**-1
  26:      1449.58 cm**-1
  27:      1459.13 cm**-1
  28:      1470.55 cm**-1
  29:      3049.66 cm**-1
  30:      3066.30 cm**-1
  31:      3079.32 cm**-1
  32:      3117.08 cm**-1
  33:      3144.41 cm**-1
  34:      3152.95 cm**-1
  35:      3172.98 cm**-1

IR SPECTRUM
-----------

 Mode    freq (cm**-1)   T**2         TX         TY         TZ
-------------------------------------------------------------------
   6:        15.60    2.933975  (  1.631753  -0.138294  -0.502227)
   7:        34.84    6.197044  (  1.064747  -0.561222   2.179079)
   8:        72.58    7.531004  ( -0.704814   1.506441  -2.182860)
   9:       123.95    4.694152  ( -0.001820   1.526827  -1.537188)
  10:       215.55    1.778397  (  1.205508  -0.001087   0.570217)
  11:       252.20    0.912647  (  0.426905  -0.643932   0.561917)
  12:       311.26    4.073794  (  1.868843  -0.231196  -0.726477)
  13:       653.28   48.375242  (  5.010018  -0.349316  -4.811750)
  14:       751.53   11.591506  ( -1.110073   2.957745  -1.269247)
  15:       857.34    1.924378  ( -0.475447   1.157195  -0.599357)
  16:       915.89   20.702246  ( -4.507717  -0.413646  -0.460037)
  17:      1056.01    1.109555  ( -0.015866   1.052736   0.032414)
  18:      1071.78    3.377855  ( -1.782198   0.448652   0.018389)
  19:      1122.57    2.376901  ( -1.277658  -0.541467  -0.671791)
  20:      1227.42    8.686602  ( -2.108848   0.533906   1.988544)
  21:      1256.68   46.870581  (  5.650788  -1.211078  -3.670485)
  22:      1303.77    1.277574  (  0.817311  -0.546160  -0.557930)
  23:      1353.43   17.754855  ( -3.341499   0.660575   2.480500)
  24:      1384.77    0.799941  (  0.884776  -0.126804   0.032149)
  25:      1446.11    3.177081  (  1.779441  -0.094778  -0.041096)
  26:      1449.58    8.271432  (  0.314514   2.800071  -0.576295)
  27:      1459.13    2.272490  ( -0.762580   0.102489  -1.296325)
  28:      1470.55   10.088160  ( -2.035367  -0.926761  -2.255340)
  29:      3049.66   36.265097  ( -4.562826   1.286610   3.713537)
  30:      3066.30   42.774177  ( -2.027236   0.486096  -6.199048)
  31:      3079.32   53.958089  (  1.035957  -6.020570   4.078923)
  32:      3117.08   14.455446  (  1.132671  -2.822553   2.281600)
  33:      3144.41   38.319039  (  1.223911   6.068011  -0.018046)
  34:      3152.95   22.750540  (  2.832232  -1.098242   3.677345)
  35:      3172.98   29.334751  ( -0.362993  -0.713727  -5.356639)

--------------------------
THERMOCHEMISTRY AT 298.15K
--------------------------

Temperature         ... 298.15 K
Pressure            ... 1.00 atm
Total Mass          ... 202.89 AMU

Throughout the following assumptions are being made:
  (1) The electronic state is orbitally nondegenerate
  (2) There are no thermally accessible electronically excited states
  (3) Hindered rotations indicated by low frequency modes are not
      treated as such but are treated as vibrations and this may
      cause some error
  (4) All equations used are the standard statistical mechanics
      equations for an ideal gas
  (5) All vibrations are strictly harmonic

freq.      15.60  E(vib)   ...       0.57
freq.      34.84  E(vib)   ...       0.54
freq.      72.58  E(vib)   ...       0.49
freq.     123.95  E(vib)   ...       0.43
freq.     215.55  E(vib)   ...       0.34
freq.     252.20  E(vib)   ...       0.30
freq.     311.26  E(vib)   ...       0.25
freq.     653.28  E(vib)   ...       0.08
freq.     751.53  E(vib)   ...       0.06
freq.     857.34  E(vib)   ...       0.04
freq.     915.89  E(vib)   ...       0.03
freq.    1056.01  E(vib)   ...       0.02
freq.    1071.78  E(vib)   ...       0.02
freq.    1122.57  E(vib)   ...       0.01
freq.    1227.42  E(vib)   ...       0.01
freq.    1256.68  E(vib)   ...       0.01
freq.    1303.77  E(vib)   ...       0.01
freq.    1353.43  E(vib)   ...       0.01
freq.    1384.77  E(vib)   ...       0.00
freq.    1446.11  E(vib)   ...       0.00
freq.    1449.58  E(vib)   ...       0.00
freq.    1459.13  E(vib)   ...       0.00
freq.    1470.55  E(vib)   ...       0.00
freq.    3049.66  E(vib)   ...       0.00
freq.    3066.30  E(vib)   ...       0.00
freq.    3079.32  E(vib)   ...       0.00
freq.    3117.08  E(vib)   ...       0.00
freq.    3144.41  E(vib)   ...       0.00
freq.    3152.95  E(vib)   ...       0.00
freq.    3172.98  E(vib)   ...       0.00

------------
INNER ENERGY
------------

The inner energy is: U= E(el) + E(ZPE) + E(vib) + E(rot) + E(trans)
    E(el)   - is the total energy from the electronic structure calculation
              = E(kin-el) + E(nuc-el) + E(el-el) + E(nuc-nuc)
    E(ZPE)  - the the zero temperature vibrational energy from the frequency calculation
    E(vib)  - the the finite temperature correction to E(ZPE) due to population
              of excited vibrational states
    E(rot)  - is the rotational thermal energy
    E(trans)- is the translational thermal energy

Summary of contributions to the inner energy U:
Electronic energy                ...  -5265.58093157 Eh
Zero point energy                ...      0.09474565 Eh      59.45 kcal/mol
Thermal vibrational correction   ...      0.00518192 Eh       3.25 kcal/mol
Thermal rotational correction    ...      0.00141627 Eh       0.89 kcal/mol
Thermal translational correction ...      0.00141627 Eh       0.89 kcal/mol
-----------------------------------------------------------------------
Total thermal energy                  -5265.47817145 Eh

Summary of corrections to the electronic energy:
(perhaps to be used in another calculation)
Total thermal correction                  0.00801447 Eh       5.03 kcal/mol
Non-thermal (ZPE) correction              0.09474565 Eh      59.45 kcal/mol
-----------------------------------------------------------------------
Total correction                          0.10276012 Eh      64.48 kcal/mol

--------
ENTHALPY
--------

The enthalpy is H = U + kB*T
                kB is Boltzmann's constant
Total free energy                 ...  -5265.47817145 Eh
Thermal Enthalpy correction       ...      0.00094421 Eh       0.59 kcal/mol
-----------------------------------------------------------------------
Total Enthalpy                    ...  -5265.47722724 Eh

Note: Only C1 symmetry has been detected, increase convergence thresholds
      if your molecule has a higher symmetry. Symmetry factor of 1.0 is
      used for the rotational entropy correction.

Note: Rotational entropy computed according to Herzberg
Infrared and Raman Spectra, Chapter V,1, Van Nostrand Reinhold, 1945
Point Group:  C1, Symmetry Number:   1
Rotational constants in cm-1:     0.061837     0.016881     0.013477

Vibrational entropy computed according to the QRRHO of S. Grimme
Chem.Eur.J. 2012 18 9955

-------
ENTROPY
-------

The entropy contributions are T*S = T*(S(el)+S(vib)+S(rot)+S(trans))
     S(el)   - electronic entropy
     S(vib)  - vibrational entropy
     S(rot)  - rotational entropy
     S(trans)- translational entropy
The entropies will be listed as mutliplied by the temperature to get
units of energy

Electronic entropy                ...      0.00000000 Eh      0.00 kcal/mol
Vibrational entropy               ...      0.01012532 Eh      6.35 kcal/mol
Rotational entropy                ...      0.01478480 Eh      9.28 kcal/mol
Translational entropy             ...      0.01987324 Eh     12.47 kcal/mol
-----------------------------------------------------------------------
Final entropy term                ...      0.04478336 Eh     28.10 kcal/mol

In case the symmetry of your molecule has not been determined correctly
or in case you have a reason to use a different symmetry number we print
out the resulting rotational entropy values for sn=1,12 :
 --------------------------------------------------------
|  sn= 1 | S(rot)=       0.01478480 Eh      9.28 kcal/mol|
|  sn= 2 | S(rot)=       0.01413035 Eh      8.87 kcal/mol|
|  sn= 3 | S(rot)=       0.01374751 Eh      8.63 kcal/mol|
|  sn= 4 | S(rot)=       0.01347589 Eh      8.46 kcal/mol|
|  sn= 5 | S(rot)=       0.01326520 Eh      8.32 kcal/mol|
|  sn= 6 | S(rot)=       0.01309306 Eh      8.22 kcal/mol|
|  sn= 7 | S(rot)=       0.01294751 Eh      8.12 kcal/mol|
|  sn= 8 | S(rot)=       0.01282143 Eh      8.05 kcal/mol|
|  sn= 9 | S(rot)=       0.01271023 Eh      7.98 kcal/mol|
|  sn=10 | S(rot)=       0.01261075 Eh      7.91 kcal/mol|
|  sn=11 | S(rot)=       0.01252076 Eh      7.86 kcal/mol|
|  sn=12 | S(rot)=       0.01243860 Eh      7.81 kcal/mol|
 --------------------------------------------------------

-------------------
GIBBS FREE ENERGY
-------------------

The Gibbs free energy is G = H - T*S

Total enthalpy                    ...  -5265.47722724 Eh
Total entropy correction          ...     -0.04478336 Eh    -28.10 kcal/mol
-----------------------------------------------------------------------
Final Gibbs free energy         ...  -5265.52201060 Eh

For completeness - the Gibbs free energy minus the electronic energy
G-E(el)                           ...      0.05892097 Eh     36.97 kcal/mol

                             ****ORCA TERMINATED NORMALLY****
TOTAL RUN TIME: 0 days 0 hours 1 minutes 7 seconds 898 msec
