                         Program Version 4.2.1 -  RELEASE  -
|  1> ! Freq PBE0 RIJCOSX D3BJ def2-SVP def2/J CPCM(Acetone)
|  2> %geom MaxIter 100 end
|  3> %output
|  4> xyzfile=True
|  5> end
|  6> %scf
|  7> maxiter 250
|  8> end
|  9> %output
| 10> Print[P_Hirshfeld] = 1
| 11> end
| 12> % maxcore
| 13> 4000
| 14> %pal nprocs 4
| 15> end
| 16> *xyz -1 1
| 17>   C   1.38676343781483     -0.50070692648455     -0.85113703756399
| 18>   C   0.10282325643984     -0.23705841915218     -0.10077833998079
| 19>   C   -0.70069084855389     -1.48001335490332      0.20314542185045
| 20>   Br  -1.01833724084234      1.02272479165688     -1.15434352377750
| 21>   H   1.90940732673292      0.43286533760312     -1.10271707522504
| 22>   H   1.19811626613602     -1.06263863062883     -1.77864885569647
| 23>   H   2.04545600042489     -1.10047801199197     -0.20239551690917
| 24>   H   0.30589884646771      0.32532249216837      0.82077121461565
| 25>   H   -1.62090891524803     -1.24508528817934      0.75621565913002
| 26>   H   -0.08255890290999     -2.13900173320669      0.83410727354168
| 27>   H   -0.96849834964586     -2.01964746467622     -0.71815234927918
| 28>   Br  2.10407912318389     -1.45245279220526      3.13843312929433
| 29> *
| 30>
| 31>                          ****END OF INPUT****

CARTESIAN COORDINATES (ANGSTROEM)
---------------------------------
  C      1.386763   -0.500707   -0.851137
  C      0.102823   -0.237058   -0.100778
  C     -0.700691   -1.480013    0.203145
  Br    -1.018337    1.022725   -1.154344
  H      1.909407    0.432865   -1.102717
  H      1.198116   -1.062639   -1.778649
  H      2.045456   -1.100478   -0.202396
  H      0.305899    0.325322    0.820771
  H     -1.620909   -1.245085    0.756216
  H     -0.082559   -2.139002    0.834107
  H     -0.968498   -2.019647   -0.718152
  Br     2.104079   -1.452453    3.138433

 Total Charge           Charge          ....   -1
 Multiplicity           Mult            ....    1
 Number of Electrons    NEL             ....   96
 Basis Dimension        Dim             ....  141

ORBITAL ENERGIES
----------------

  NO   OCC          E(Eh)            E(eV)
   0   2.0000    -483.168388    -13147.6802
   1   2.0000    -483.065138    -13144.8707
   2   2.0000     -62.604705     -1703.5606
   3   2.0000     -62.500264     -1700.7187
   4   2.0000     -56.393816     -1534.5537
   5   2.0000     -56.391680     -1534.4956
   6   2.0000     -56.391530     -1534.4916
   7   2.0000     -56.288229     -1531.6806
   8   2.0000     -56.288195     -1531.6797
   9   2.0000     -56.287824     -1531.6696
  10   2.0000     -10.283031      -279.8155
  11   2.0000     -10.222539      -278.1694
  12   2.0000     -10.221680      -278.1461
  13   2.0000      -8.749945      -238.0981
  14   2.0000      -8.643749      -235.2084
  15   2.0000      -6.563768      -178.6092
  16   2.0000      -6.552335      -178.2981
  17   2.0000      -6.552293      -178.2970
  18   2.0000      -6.450093      -175.5160
  19   2.0000      -6.450056      -175.5149
  20   2.0000      -6.450011      -175.5137
  21   2.0000      -2.649474       -72.0959
  22   2.0000      -2.646221       -72.0073
  23   2.0000      -2.646140       -72.0051
  24   2.0000      -2.636928       -71.7545
  25   2.0000      -2.636918       -71.7542
  26   2.0000      -2.536961       -69.0342
  27   2.0000      -2.536938       -69.0336
  28   2.0000      -2.536920       -69.0331
  29   2.0000      -2.536883       -69.0321
  30   2.0000      -2.536875       -69.0319
  31   2.0000      -0.838986       -22.8300
  32   2.0000      -0.742406       -20.2019
  33   2.0000      -0.697895       -18.9907
  34   2.0000      -0.652701       -17.7609
  35   2.0000      -0.578523       -15.7424
  36   2.0000      -0.472454       -12.8561
  37   2.0000      -0.450010       -12.2454
  38   2.0000      -0.423713       -11.5298
  39   2.0000      -0.392427       -10.6785
  40   2.0000      -0.360575        -9.8117
  41   2.0000      -0.360218        -9.8020
  42   2.0000      -0.335793        -9.1374
  43   2.0000      -0.281458        -7.6589
  44   2.0000      -0.281273        -7.6538
  45   2.0000      -0.216347        -5.8871
  46   2.0000      -0.215861        -5.8739
  47   2.0000      -0.213863        -5.8195
  48   0.0000       0.017842         0.4855
  49   0.0000       0.091431         2.4880
  50   0.0000       0.124085         3.3765
  51   0.0000       0.131066         3.5665
  52   0.0000       0.150240         4.0882

MULLIKEN ATOMIC CHARGES
-----------------------
   0 C :   -0.034238
   1 C :   -0.221833
   2 C :   -0.029680
   3 Br:   -0.208528
   4 H :    0.059449
   5 H :    0.053897
   6 H :    0.058473
   7 H :    0.092387
   8 H :    0.058397
   9 H :    0.056867
  10 H :    0.052725
  11 Br:   -0.937916
Sum of atomic charges:   -1.0000000

LOEWDIN ATOMIC CHARGES
----------------------
   0 C :   -0.082288
   1 C :   -0.069321
   2 C :   -0.082221
   3 Br:   -0.057531
   4 H :    0.034235
   5 H :    0.032944
   6 H :    0.036595
   7 H :    0.032722
   8 H :    0.034203
   9 H :    0.034941
  10 H :    0.032135
  11 Br:   -0.946413

  Mayer bond orders larger than 0.100000
B(  0-C ,  1-C ) :   1.0475 B(  0-C ,  4-H ) :   0.9640 B(  0-C ,  5-H ) :   0.9648
B(  0-C ,  6-H ) :   0.9470 B(  1-C ,  2-C ) :   1.0432 B(  1-C ,  3-Br) :   0.9601
B(  1-C ,  7-H ) :   0.9253 B(  2-C ,  8-H ) :   0.9652 B(  2-C ,  9-H ) :   0.9461
B(  2-C , 10-H ) :   0.9633

Dispersion correction           -0.009106789
FINAL SINGLE POINT ENERGY     -5265.584940878503

DIPOLE MOMENT
-------------
                                X             Y             Z
Electronic contribution:     -0.61445       7.67850       7.30585
Nuclear contribution   :     -1.60764      -6.41084     -10.96365
                        -----------------------------------------
Total Dipole Moment    :     -2.22208       1.26766      -3.65779
                        -----------------------------------------
Magnitude (a.u.)       :      4.46364
Magnitude (Debye)      :     11.34567

Dispersion correction in the Hessian             ... done   (      0.6 sec)

VIBRATIONAL FREQUENCIES
-----------------------

Scaling factor for frequencies =  1.000000000  (already applied!)

   0:         0.00 cm**-1
   1:         0.00 cm**-1
   2:         0.00 cm**-1
   3:         0.00 cm**-1
   4:         0.00 cm**-1
   5:         0.00 cm**-1
   6:       -29.98 cm**-1 ***imaginary mode***
   7:        36.89 cm**-1
   8:        44.74 cm**-1
   9:       248.62 cm**-1
  10:       260.92 cm**-1
  11:       290.23 cm**-1
  12:       306.45 cm**-1
  13:       404.29 cm**-1
  14:       532.85 cm**-1
  15:       906.26 cm**-1
  16:       932.24 cm**-1
  17:       944.93 cm**-1
  18:      1040.55 cm**-1
  19:      1159.73 cm**-1
  20:      1165.46 cm**-1
  21:      1222.87 cm**-1
  22:      1336.26 cm**-1
  23:      1379.97 cm**-1
  24:      1385.32 cm**-1
  25:      1433.96 cm**-1
  26:      1440.51 cm**-1
  27:      1445.35 cm**-1
  28:      1457.09 cm**-1
  29:      3051.41 cm**-1
  30:      3053.40 cm**-1
  31:      3139.52 cm**-1
  32:      3150.65 cm**-1
  33:      3155.47 cm**-1
  34:      3167.85 cm**-1
  35:      3170.46 cm**-1

IR SPECTRUM
-----------

 Mode    freq (cm**-1)   T**2         TX         TY         TZ
-------------------------------------------------------------------
   7:        36.89    6.053022  ( -0.706787  -0.943837   2.159316)
   8:        44.74   12.466845  ( -2.252898  -0.017956  -2.718635)
   9:       248.62    0.243240  ( -0.397454  -0.069172  -0.283700)
  10:       260.92    5.879469  (  1.394493  -1.147845   1.617811)
  11:       290.23    1.101459  ( -0.585695  -0.673542   0.552052)
  12:       306.45    4.664286  ( -1.237431   1.590629  -0.776498)
  13:       404.29    3.896216  ( -1.120285   0.990300  -1.288597)
  14:       532.85   40.011422  (  3.408958  -4.943960   1.986879)
  15:       906.26   30.047737  (  3.126945  -2.779907   3.541479)
  16:       932.24    1.893503  (  0.843170   0.712078  -0.821896)
  17:       944.93    0.148621  (  0.311146   0.135736  -0.182714)
  18:      1040.55   64.961628  ( -4.440039   4.313636  -5.161417)
  19:      1159.73    5.061572  (  0.655497   1.847049  -1.104675)
  20:      1165.46   68.703893  (  4.620187  -6.402892   2.522051)
  21:      1222.87   44.069878  ( -3.767233   4.005702  -3.719165)
  22:      1336.26    0.727270  ( -0.641235  -0.468757   0.310410)
  23:      1379.97   17.605888  ( -0.280451   2.576439   3.299878)
  24:      1385.32   24.796682  (  4.179135   2.106683  -1.700999)
  25:      1433.96    1.069213  (  0.575153   0.106620  -0.852669)
  26:      1440.51    0.970841  (  0.217123   0.053922  -0.959578)
  27:      1445.35   19.257002  ( -0.945046  -2.350583  -3.583106)
  28:      1457.09    9.493695  ( -1.282742  -0.522350  -2.752348)
  29:      3051.41   19.991322  (  3.699888   2.108584  -1.362360)
  30:      3053.40   15.730571  (  1.070486  -2.996770  -2.367276)
  31:      3139.52    0.449699  (  0.283931   0.009615   0.607445)
  32:      3150.65    0.946662  ( -0.767608  -0.397507   0.446574)
  33:      3155.47    5.079413  (  1.222007  -0.140582   1.888478)
  34:      3167.85   11.934655  (  2.720052   1.468741  -1.542326)
  35:      3170.46   24.977590  ( -0.131464   3.618574   3.444739)

--------------------------
THERMOCHEMISTRY AT 298.15K
--------------------------

Temperature         ... 298.15 K
Pressure            ... 1.00 atm
Total Mass          ... 202.89 AMU

Throughout the following assumptions are being made:
  (1) The electronic state is orbitally nondegenerate
  (2) There are no thermally accessible electronically excited states
  (3) Hindered rotations indicated by low frequency modes are not
      treated as such but are treated as vibrations and this may
      cause some error
  (4) All equations used are the standard statistical mechanics
      equations for an ideal gas
  (5) All vibrations are strictly harmonic

freq.      36.89  E(vib)   ...       0.54
freq.      44.74  E(vib)   ...       0.53
freq.     248.62  E(vib)   ...       0.31
freq.     260.92  E(vib)   ...       0.30
freq.     290.23  E(vib)   ...       0.27
freq.     306.45  E(vib)   ...       0.26
freq.     404.29  E(vib)   ...       0.19
freq.     532.85  E(vib)   ...       0.13
freq.     906.26  E(vib)   ...       0.03
freq.     932.24  E(vib)   ...       0.03
freq.     944.93  E(vib)   ...       0.03
freq.    1040.55  E(vib)   ...       0.02
freq.    1159.73  E(vib)   ...       0.01
freq.    1165.46  E(vib)   ...       0.01
freq.    1222.87  E(vib)   ...       0.01
freq.    1336.26  E(vib)   ...       0.01
freq.    1379.97  E(vib)   ...       0.01
freq.    1385.32  E(vib)   ...       0.00
freq.    1433.96  E(vib)   ...       0.00
freq.    1440.51  E(vib)   ...       0.00
freq.    1445.35  E(vib)   ...       0.00
freq.    1457.09  E(vib)   ...       0.00
freq.    3051.41  E(vib)   ...       0.00
freq.    3053.40  E(vib)   ...       0.00
freq.    3139.52  E(vib)   ...       0.00
freq.    3150.65  E(vib)   ...       0.00
freq.    3155.47  E(vib)   ...       0.00
freq.    3167.85  E(vib)   ...       0.00
freq.    3170.46  E(vib)   ...       0.00

------------
INNER ENERGY
------------

The inner energy is: U= E(el) + E(ZPE) + E(vib) + E(rot) + E(trans)
    E(el)   - is the total energy from the electronic structure calculation
              = E(kin-el) + E(nuc-el) + E(el-el) + E(nuc-nuc)
    E(ZPE)  - the the zero temperature vibrational energy from the frequency calculation
    E(vib)  - the the finite temperature correction to E(ZPE) due to population
              of excited vibrational states
    E(rot)  - is the rotational thermal energy
    E(trans)- is the translational thermal energy

Summary of contributions to the inner energy U:
Electronic energy                ...  -5265.58494088 Eh
Zero point energy                ...      0.09400685 Eh      58.99 kcal/mol
Thermal vibrational correction   ...      0.00430144 Eh       2.70 kcal/mol
Thermal rotational correction    ...      0.00141627 Eh       0.89 kcal/mol
Thermal translational correction ...      0.00141627 Eh       0.89 kcal/mol
-----------------------------------------------------------------------
Total thermal energy                  -5265.48380005 Eh

Summary of corrections to the electronic energy:
(perhaps to be used in another calculation)
Total thermal correction                  0.00713398 Eh       4.48 kcal/mol
Non-thermal (ZPE) correction              0.09400685 Eh      58.99 kcal/mol
-----------------------------------------------------------------------
Total correction                          0.10114083 Eh      63.47 kcal/mol

--------
ENTHALPY
--------

The enthalpy is H = U + kB*T
                kB is Boltzmann's constant
Total free energy                 ...  -5265.48380005 Eh
Thermal Enthalpy correction       ...      0.00094421 Eh       0.59 kcal/mol
-----------------------------------------------------------------------
Total Enthalpy                    ...  -5265.48285584 Eh

Note: Only C1 symmetry has been detected, increase convergence thresholds
      if your molecule has a higher symmetry. Symmetry factor of 1.0 is
      used for the rotational entropy correction.

Note: Rotational entropy computed according to Herzberg
Infrared and Raman Spectra, Chapter V,1, Van Nostrand Reinhold, 1945
Point Group:  C1, Symmetry Number:   1
Rotational constants in cm-1:     0.157075     0.011641     0.011600

Vibrational entropy computed according to the QRRHO of S. Grimme
Chem.Eur.J. 2012 18 9955

-------
ENTROPY
-------

The entropy contributions are T*S = T*(S(el)+S(vib)+S(rot)+S(trans))
     S(el)   - electronic entropy
     S(vib)  - vibrational entropy
     S(rot)  - rotational entropy
     S(trans)- translational entropy
The entropies will be listed as mutliplied by the temperature to get
units of energy

Electronic entropy                ...      0.00000000 Eh      0.00 kcal/mol
Vibrational entropy               ...      0.00764656 Eh      4.80 kcal/mol
Rotational entropy                ...      0.01459098 Eh      9.16 kcal/mol
Translational entropy             ...      0.01987324 Eh     12.47 kcal/mol
-----------------------------------------------------------------------
Final entropy term                ...      0.04211078 Eh     26.42 kcal/mol

In case the symmetry of your molecule has not been determined correctly
or in case you have a reason to use a different symmetry number we print
out the resulting rotational entropy values for sn=1,12 :
 --------------------------------------------------------
|  sn= 1 | S(rot)=       0.01459098 Eh      9.16 kcal/mol|
|  sn= 2 | S(rot)=       0.01393652 Eh      8.75 kcal/mol|
|  sn= 3 | S(rot)=       0.01355369 Eh      8.51 kcal/mol|
|  sn= 4 | S(rot)=       0.01328207 Eh      8.33 kcal/mol|
|  sn= 5 | S(rot)=       0.01307138 Eh      8.20 kcal/mol|
|  sn= 6 | S(rot)=       0.01289923 Eh      8.09 kcal/mol|
|  sn= 7 | S(rot)=       0.01275369 Eh      8.00 kcal/mol|
|  sn= 8 | S(rot)=       0.01262761 Eh      7.92 kcal/mol|
|  sn= 9 | S(rot)=       0.01251640 Eh      7.85 kcal/mol|
|  sn=10 | S(rot)=       0.01241692 Eh      7.79 kcal/mol|
|  sn=11 | S(rot)=       0.01232693 Eh      7.74 kcal/mol|
|  sn=12 | S(rot)=       0.01224478 Eh      7.68 kcal/mol|
 --------------------------------------------------------

-------------------
GIBBS FREE ENERGY
-------------------

The Gibbs free energy is G = H - T*S

Total enthalpy                    ...  -5265.48285584 Eh
Total entropy correction          ...     -0.04211078 Eh    -26.42 kcal/mol
-----------------------------------------------------------------------
Final Gibbs free energy         ...  -5265.52496662 Eh

For completeness - the Gibbs free energy minus the electronic energy
G-E(el)                           ...      0.05997426 Eh     37.63 kcal/mol

                             ****ORCA TERMINATED NORMALLY****
TOTAL RUN TIME: 0 days 0 hours 1 minutes 10 seconds 569 msec
