                         Program Version 4.2.1 -  RELEASE  -
|  1> ! Freq PBE0 RIJCOSX D3BJ def2-SVP def2/J CPCM(Acetone)
|  2> %geom MaxIter 100 end
|  3> %output
|  4> xyzfile=True
|  5> end
|  6> %scf
|  7> maxiter 250
|  8> end
|  9> %output
| 10> Print[P_Hirshfeld] = 1
| 11> end
| 12> % maxcore
| 13> 4000
| 14> %pal nprocs 4
| 15> end
| 16> *xyz -1 1
| 17>   C   -1.72225423972797     -0.43060317531096     -0.59617525498761
| 18>   C   -0.23568444963270     -0.65754339910671     -0.54696512101846
| 19>   Br  0.75801552450217      0.97306815406782     -1.01652721003859
| 20>   H   -2.22892441760429     -1.37269563672509     -0.33055711517932
| 21>   H   -2.03414550915918      0.32689520099230      0.13654446435225
| 22>   H   -2.06131791363200     -0.11974112724272     -1.59531506927116
| 23>   H   0.10744716350727     -1.41171070762745     -1.26527914814838
| 24>   H   0.09434173493088     -0.93117137579165      0.46505641525359
| 25>   Br  -0.88491789318418     -1.67360793325553      3.10510803903768
| 26> *
| 27>
| 28>                          ****END OF INPUT****

CARTESIAN COORDINATES (ANGSTROEM)
---------------------------------
  C     -1.722254   -0.430603   -0.596175
  C     -0.235684   -0.657543   -0.546965
  Br     0.758016    0.973068   -1.016527
  H     -2.228924   -1.372696   -0.330557
  H     -2.034146    0.326895    0.136544
  H     -2.061318   -0.119741   -1.595315
  H      0.107447   -1.411711   -1.265279
  H      0.094342   -0.931171    0.465056
  Br    -0.884918   -1.673608    3.105108

 Total Charge           Charge          ....   -1
 Multiplicity           Mult            ....    1
 Number of Electrons    NEL             ....   88
 Basis Dimension        Dim             ....  117

ORBITAL ENERGIES
----------------

  NO   OCC          E(Eh)            E(eV)
   0   2.0000    -483.171182    -13147.7563
   1   2.0000    -483.065193    -13144.8722
   2   2.0000     -62.607564     -1703.6384
   3   2.0000     -62.500376     -1700.7217
   4   2.0000     -56.396733     -1534.6331
   5   2.0000     -56.394502     -1534.5724
   6   2.0000     -56.394346     -1534.5682
   7   2.0000     -56.288363     -1531.6842
   8   2.0000     -56.288299     -1531.6825
   9   2.0000     -56.287941     -1531.6728
  10   2.0000     -10.271973      -279.5146
  11   2.0000     -10.223457      -278.1944
  12   2.0000      -8.752887      -238.1782
  13   2.0000      -8.643852      -235.2112
  14   2.0000      -6.567025      -178.6978
  15   2.0000      -6.555116      -178.3738
  16   2.0000      -6.555071      -178.3725
  17   2.0000      -6.450318      -175.5221
  18   2.0000      -6.450090      -175.5159
  19   2.0000      -6.450064      -175.5152
  20   2.0000      -2.652532       -72.1791
  21   2.0000      -2.649385       -72.0934
  22   2.0000      -2.649257       -72.0900
  23   2.0000      -2.639596       -71.8271
  24   2.0000      -2.639587       -71.8268
  25   2.0000      -2.537119       -69.0385
  26   2.0000      -2.537104       -69.0381
  27   2.0000      -2.537060       -69.0369
  28   2.0000      -2.536909       -69.0328
  29   2.0000      -2.536901       -69.0326
  30   2.0000      -0.824012       -22.4225
  31   2.0000      -0.732225       -19.9249
  32   2.0000      -0.653191       -17.7742
  33   2.0000      -0.609339       -16.5810
  34   2.0000      -0.467009       -12.7080
  35   2.0000      -0.440040       -11.9741
  36   2.0000      -0.402896       -10.9634
  37   2.0000      -0.364721        -9.9246
  38   2.0000      -0.349285        -9.5045
  39   2.0000      -0.283174        -7.7055
  40   2.0000      -0.281352        -7.6560
  41   2.0000      -0.216508        -5.8915
  42   2.0000      -0.216441        -5.8897
  43   2.0000      -0.214255        -5.8302
  44   0.0000       0.023374         0.6360
  45   0.0000       0.098171         2.6714
  46   0.0000       0.132944         3.6176
  47   0.0000       0.143699         3.9103
  48   0.0000       0.160825         4.3763

MULLIKEN ATOMIC CHARGES
-----------------------
   0 C :   -0.063053
   1 C :   -0.129172
   2 Br:   -0.226791
   3 H :    0.060922
   4 H :    0.055144
   5 H :    0.055069
   6 H :    0.105477
   7 H :    0.083672
   8 Br:   -0.941267
Sum of atomic charges:   -1.0000000

LOEWDIN ATOMIC CHARGES
----------------------
   0 C :   -0.086232
   1 C :   -0.081298
   2 Br:   -0.052149
   3 H :    0.042917
   4 H :    0.032849
   5 H :    0.031576
   6 H :    0.038367
   7 H :    0.018229
   8 Br:   -0.944258

  Mayer bond orders larger than 0.100000
B(  0-C ,  1-C ) :   1.0739 B(  0-C ,  3-H ) :   0.9523 B(  0-C ,  4-H ) :   0.9697
B(  0-C ,  5-H ) :   0.9706 B(  1-C ,  2-Br) :   0.9628 B(  1-C ,  6-H ) :   0.9513
B(  1-C ,  7-H ) :   0.9277 B(  7-H ,  8-Br) :   0.1027

Dispersion correction           -0.005936249
FINAL SINGLE POINT ENERGY     -5226.340011195561

DIPOLE MOMENT
-------------
                                X             Y             Z
Electronic contribution:      8.10807       3.59024       6.93522
Nuclear contribution   :     -7.49267      -2.12073     -10.75924
                        -----------------------------------------
Total Dipole Moment    :      0.61540       1.46951      -3.82402
                        -----------------------------------------
Magnitude (a.u.)       :      4.14262
Magnitude (Debye)      :     10.52970

Dispersion correction in the Hessian             ... done   (      0.4 sec)

VIBRATIONAL FREQUENCIES
-----------------------

Scaling factor for frequencies =  1.000000000  (already applied!)

   0:         0.00 cm**-1
   1:         0.00 cm**-1
   2:         0.00 cm**-1
   3:         0.00 cm**-1
   4:         0.00 cm**-1
   5:         0.00 cm**-1
   6:       -10.08 cm**-1 ***imaginary mode***
   7:        37.91 cm**-1
   8:        63.93 cm**-1
   9:       248.09 cm**-1
  10:       288.91 cm**-1
  11:       560.47 cm**-1
  12:       774.03 cm**-1
  13:       970.65 cm**-1
  14:      1024.45 cm**-1
  15:      1096.39 cm**-1
  16:      1244.98 cm**-1
  17:      1259.88 cm**-1
  18:      1380.38 cm**-1
  19:      1431.27 cm**-1
  20:      1445.15 cm**-1
  21:      1449.13 cm**-1
  22:      3057.98 cm**-1
  23:      3108.92 cm**-1
  24:      3152.83 cm**-1
  25:      3168.57 cm**-1
  26:      3199.34 cm**-1

IR SPECTRUM
-----------

 Mode    freq (cm**-1)   T**2         TX         TY         TZ
-------------------------------------------------------------------
   7:        37.91    1.774634  (  1.163860  -0.641876  -0.089779)
   8:        63.93   16.913997  ( -0.157750  -0.686795   4.051842)
   9:       248.09    0.563625  ( -0.255833  -0.561139   0.428133)
  10:       288.91    4.260451  (  1.695222   1.100890  -0.417990)
  11:       560.47   37.868549  (  4.053861   4.335602  -1.623979)
  12:       774.03   16.713365  (  0.275067   0.058419   4.078516)
  13:       970.65   46.823405  (  4.012237   4.851928  -2.680327)
  14:      1024.45    4.733450  ( -0.300543  -0.167426   2.148277)
  15:      1096.39    0.584935  ( -0.744264   0.175522  -0.014053)
  16:      1244.98    5.584156  ( -1.172665  -1.765190   1.045523)
  17:      1259.88   71.961420  ( -4.963139  -6.879560   0.018173)
  18:      1380.38   12.182687  ( -3.455894  -0.180820  -0.454737)
  19:      1431.27   24.301322  (  0.832042   1.023957   4.749794)
  20:      1445.15    7.770050  (  1.123718   1.465118  -2.088238)
  21:      1449.13    5.969472  (  1.886012  -1.537442  -0.220686)
  22:      3057.98   15.100733  (  3.848398   0.221062   0.491631)
  23:      3108.92   23.253715  (  1.946883  -0.811498  -4.336454)
  24:      3152.83   11.467439  ( -0.972820   3.038066  -1.136316)
  25:      3168.57   17.536761  ( -0.079035   0.318457   4.174817)
  26:      3199.34    9.762052  (  0.395937   2.897698  -1.099377)

--------------------------
THERMOCHEMISTRY AT 298.15K
--------------------------

Temperature         ... 298.15 K
Pressure            ... 1.00 atm
Total Mass          ... 188.86 AMU

Throughout the following assumptions are being made:
  (1) The electronic state is orbitally nondegenerate
  (2) There are no thermally accessible electronically excited states
  (3) Hindered rotations indicated by low frequency modes are not
      treated as such but are treated as vibrations and this may
      cause some error
  (4) All equations used are the standard statistical mechanics
      equations for an ideal gas
  (5) All vibrations are strictly harmonic

freq.      37.91  E(vib)   ...       0.54
freq.      63.93  E(vib)   ...       0.51
freq.     248.09  E(vib)   ...       0.31
freq.     288.91  E(vib)   ...       0.27
freq.     560.47  E(vib)   ...       0.11
freq.     774.03  E(vib)   ...       0.05
freq.     970.65  E(vib)   ...       0.03
freq.    1024.45  E(vib)   ...       0.02
freq.    1096.39  E(vib)   ...       0.02
freq.    1244.98  E(vib)   ...       0.01
freq.    1259.88  E(vib)   ...       0.01
freq.    1380.38  E(vib)   ...       0.01
freq.    1431.27  E(vib)   ...       0.00
freq.    1445.15  E(vib)   ...       0.00
freq.    1449.13  E(vib)   ...       0.00
freq.    3057.98  E(vib)   ...       0.00
freq.    3108.92  E(vib)   ...       0.00
freq.    3152.83  E(vib)   ...       0.00
freq.    3168.57  E(vib)   ...       0.00
freq.    3199.34  E(vib)   ...       0.00

------------
INNER ENERGY
------------

The inner energy is: U= E(el) + E(ZPE) + E(vib) + E(rot) + E(trans)
    E(el)   - is the total energy from the electronic structure calculation
              = E(kin-el) + E(nuc-el) + E(el-el) + E(nuc-nuc)
    E(ZPE)  - the the zero temperature vibrational energy from the frequency calculation
    E(vib)  - the the finite temperature correction to E(ZPE) due to population
              of excited vibrational states
    E(rot)  - is the rotational thermal energy
    E(trans)- is the translational thermal energy

Summary of contributions to the inner energy U:
Electronic energy                ...  -5226.34001120 Eh
Zero point energy                ...      0.06598321 Eh      41.40 kcal/mol
Thermal vibrational correction   ...      0.00301334 Eh       1.89 kcal/mol
Thermal rotational correction    ...      0.00141627 Eh       0.89 kcal/mol
Thermal translational correction ...      0.00141627 Eh       0.89 kcal/mol
-----------------------------------------------------------------------
Total thermal energy                  -5226.26818210 Eh

Summary of corrections to the electronic energy:
(perhaps to be used in another calculation)
Total thermal correction                  0.00584588 Eh       3.67 kcal/mol
Non-thermal (ZPE) correction              0.06598321 Eh      41.40 kcal/mol
-----------------------------------------------------------------------
Total correction                          0.07182909 Eh      45.07 kcal/mol

--------
ENTHALPY
--------

The enthalpy is H = U + kB*T
                kB is Boltzmann's constant
Total free energy                 ...  -5226.26818210 Eh
Thermal Enthalpy correction       ...      0.00094421 Eh       0.59 kcal/mol
-----------------------------------------------------------------------
Total Enthalpy                    ...  -5226.26723790 Eh

Note: Only C1 symmetry has been detected, increase convergence thresholds
      if your molecule has a higher symmetry. Symmetry factor of 1.0 is
      used for the rotational entropy correction.

Note: Rotational entropy computed according to Herzberg
Infrared and Raman Spectra, Chapter V,1, Van Nostrand Reinhold, 1945
Point Group:  C1, Symmetry Number:   1
Rotational constants in cm-1:     0.186780     0.015329     0.014431

Vibrational entropy computed according to the QRRHO of S. Grimme
Chem.Eur.J. 2012 18 9955

-------
ENTROPY
-------

The entropy contributions are T*S = T*(S(el)+S(vib)+S(rot)+S(trans))
     S(el)   - electronic entropy
     S(vib)  - vibrational entropy
     S(rot)  - rotational entropy
     S(trans)- translational entropy
The entropies will be listed as mutliplied by the temperature to get
units of energy

Electronic entropy                ...      0.00000000 Eh      0.00 kcal/mol
Vibrational entropy               ...      0.00554490 Eh      3.48 kcal/mol
Rotational entropy                ...      0.01427619 Eh      8.96 kcal/mol
Translational entropy             ...      0.01977177 Eh     12.41 kcal/mol
-----------------------------------------------------------------------
Final entropy term                ...      0.03959286 Eh     24.84 kcal/mol

In case the symmetry of your molecule has not been determined correctly
or in case you have a reason to use a different symmetry number we print
out the resulting rotational entropy values for sn=1,12 :
 --------------------------------------------------------
|  sn= 1 | S(rot)=       0.01427619 Eh      8.96 kcal/mol|
|  sn= 2 | S(rot)=       0.01362174 Eh      8.55 kcal/mol|
|  sn= 3 | S(rot)=       0.01323891 Eh      8.31 kcal/mol|
|  sn= 4 | S(rot)=       0.01296728 Eh      8.14 kcal/mol|
|  sn= 5 | S(rot)=       0.01275659 Eh      8.00 kcal/mol|
|  sn= 6 | S(rot)=       0.01258445 Eh      7.90 kcal/mol|
|  sn= 7 | S(rot)=       0.01243890 Eh      7.81 kcal/mol|
|  sn= 8 | S(rot)=       0.01231282 Eh      7.73 kcal/mol|
|  sn= 9 | S(rot)=       0.01220162 Eh      7.66 kcal/mol|
|  sn=10 | S(rot)=       0.01210214 Eh      7.59 kcal/mol|
|  sn=11 | S(rot)=       0.01201215 Eh      7.54 kcal/mol|
|  sn=12 | S(rot)=       0.01192999 Eh      7.49 kcal/mol|
 --------------------------------------------------------

-------------------
GIBBS FREE ENERGY
-------------------

The Gibbs free energy is G = H - T*S

Total enthalpy                    ...  -5226.26723790 Eh
Total entropy correction          ...     -0.03959286 Eh    -24.84 kcal/mol
-----------------------------------------------------------------------
Final Gibbs free energy         ...  -5226.30683076 Eh

For completeness - the Gibbs free energy minus the electronic energy
G-E(el)                           ...      0.03318044 Eh     20.82 kcal/mol

                             ****ORCA TERMINATED NORMALLY****
TOTAL RUN TIME: 0 days 0 hours 0 minutes 37 seconds 212 msec
