                         Program Version 4.2.1 -  RELEASE  -
|  1> ! Freq PBE0 RIJCOSX D3BJ def2-SVP def2/J CPCM(Acetone)
|  2> %geom MaxIter 100 end
|  3> %output
|  4> xyzfile=True
|  5> end
|  6> %scf
|  7> maxiter 250
|  8> end
|  9> %output
| 10> Print[P_Hirshfeld] = 1
| 11> end
| 12> % maxcore
| 13> 4000
| 14> %pal nprocs 4
| 15> end
| 16> *xyz -1 1
| 17>   C   -0.39329203470779     -2.13612586394344     -1.20869876237281
| 18>   C   -0.55496529794089     -1.13736514933627     -0.09159053279048
| 19>   C   -1.95911000985706     -1.01763761284108      0.44711518228325
| 20>   I   0.13241150226865      0.85203782616401     -0.77552160385186
| 21>   H   0.64465359124733     -2.19878681956794     -1.56611097441079
| 22>   H   -1.04541291060192     -1.91235439744443     -2.06696322626260
| 23>   H   -0.67793477571799     -3.12845580221091     -0.81562757188102
| 24>   H   0.13431176592706     -1.30994575323490      0.75376318305052
| 25>   H   -1.98628514994477     -0.36035498119015      1.32648426642358
| 26>   H   -2.27854867106139     -2.02073080656808      0.77991545875016
| 27>   H   -2.67531552642862     -0.66510338150647     -0.31125494604639
| 28>   Cl  0.59700751681740     -1.22341725832033      3.05694952710843
| 29> *
| 30>
| 31>                          ****END OF INPUT****

CARTESIAN COORDINATES (ANGSTROEM)
---------------------------------
  C     -0.393292   -2.136126   -1.208699
  C     -0.554965   -1.137365   -0.091591
  C     -1.959110   -1.017638    0.447115
  I      0.132412    0.852038   -0.775522
  H      0.644654   -2.198787   -1.566111
  H     -1.045413   -1.912354   -2.066963
  H     -0.677935   -3.128456   -0.815628
  H      0.134312   -1.309946    0.753763
  H     -1.986285   -0.360355    1.326484
  H     -2.278549   -2.020731    0.779915
  H     -2.675316   -0.665103   -0.311255
  Cl     0.597008   -1.223417    3.056950

 Total Charge           Charge          ....   -1
 Multiplicity           Mult            ....    1
 Number of Electrons    NEL             ....   68
 Basis Dimension        Dim             ....  121

ORBITAL ENERGIES
----------------

  NO   OCC          E(Eh)            E(eV)
   0   2.0000    -101.517027     -2762.4187
   1   2.0000     -10.266698      -279.3710
   2   2.0000     -10.223602      -278.1984
   3   2.0000     -10.219797      -278.0948
   4   2.0000      -9.364215      -254.8132
   5   2.0000      -7.100231      -193.2071
   6   2.0000      -7.099781      -193.1949
   7   2.0000      -7.099694      -193.1925
   8   2.0000      -6.872474      -187.0095
   9   2.0000      -4.888892      -133.0335
  10   2.0000      -4.875776      -132.6766
  11   2.0000      -4.875497      -132.6690
  12   2.0000      -1.915178       -52.1146
  13   2.0000      -1.911649       -52.0186
  14   2.0000      -1.911316       -52.0096
  15   2.0000      -1.900272       -51.7090
  16   2.0000      -1.900238       -51.7081
  17   2.0000      -0.810632       -22.0584
  18   2.0000      -0.695723       -18.9316
  19   2.0000      -0.682218       -18.5641
  20   2.0000      -0.667656       -18.1678
  21   2.0000      -0.565762       -15.3952
  22   2.0000      -0.463072       -12.6008
  23   2.0000      -0.442777       -12.0486
  24   2.0000      -0.418159       -11.3787
  25   2.0000      -0.390636       -10.6297
  26   2.0000      -0.356658        -9.7052
  27   2.0000      -0.351207        -9.5568
  28   2.0000      -0.305616        -8.3162
  29   2.0000      -0.255333        -6.9480
  30   2.0000      -0.255090        -6.9413
  31   2.0000      -0.210048        -5.7157
  32   2.0000      -0.208929        -5.6852
  33   2.0000      -0.206393        -5.6162
  34   0.0000      -0.011701        -0.3184
  35   0.0000       0.088554         2.4097
  36   0.0000       0.130067         3.5393
  37   0.0000       0.140523         3.8238
  38   0.0000       0.145609         3.9622

MULLIKEN ATOMIC CHARGES
-----------------------
   0 C :   -0.019630
   1 C :   -0.334258
   2 C :   -0.012790
   3 I :   -0.166085
   4 H :    0.059095
   5 H :    0.054197
   6 H :    0.060330
   7 H :    0.075932
   8 H :    0.043327
   9 H :    0.053107
  10 H :    0.051154
  11 Cl:   -0.864379
Sum of atomic charges:   -1.0000000

LOEWDIN ATOMIC CHARGES
----------------------
   0 C :   -0.082142
   1 C :   -0.115191
   2 C :   -0.081577
   3 I :   -0.047657
   4 H :    0.033724
   5 H :    0.031270
   6 H :    0.042793
   7 H :   -0.006645
   8 H :    0.025846
   9 H :    0.040480
  10 H :    0.028288
  11 Cl:   -0.869188

  Mayer bond orders larger than 0.100000
B(  0-C ,  1-C ) :   1.0351 B(  0-C ,  4-H ) :   0.9671 B(  0-C ,  5-H ) :   0.9686
B(  0-C ,  6-H ) :   0.9515 B(  1-C ,  2-C ) :   1.0474 B(  1-C ,  3-I ) :   0.9701
B(  1-C ,  7-H ) :   0.8601 B(  2-C ,  8-H ) :   0.9584 B(  2-C ,  9-H ) :   0.9510
B(  2-C , 10-H ) :   0.9667 B(  7-H , 11-Cl) :   0.2316

Dispersion correction           -0.010129275
FINAL SINGLE POINT ENERGY      -876.089094316772

DIPOLE MOMENT
-------------
                                X             Y             Z
Electronic contribution:     18.02448      71.64619     -54.48581
Nuclear contribution   :    -19.41040     -70.55395      49.65847
                        -----------------------------------------
Total Dipole Moment    :     -1.38592       1.09224      -4.82735
                        -----------------------------------------
Magnitude (a.u.)       :      5.13975
Magnitude (Debye)      :     13.06421

Dispersion correction in the Hessian             ... done   (      0.6 sec)

VIBRATIONAL FREQUENCIES
-----------------------

Scaling factor for frequencies =  1.000000000  (already applied!)

   0:         0.00 cm**-1
   1:         0.00 cm**-1
   2:         0.00 cm**-1
   3:         0.00 cm**-1
   4:         0.00 cm**-1
   5:         0.00 cm**-1
   6:       -24.52 cm**-1 ***imaginary mode***
   7:        38.52 cm**-1
   8:       121.43 cm**-1
   9:       231.86 cm**-1
  10:       247.70 cm**-1
  11:       260.89 cm**-1
  12:       281.36 cm**-1
  13:       395.20 cm**-1
  14:       480.40 cm**-1
  15:       904.35 cm**-1
  16:       933.58 cm**-1
  17:       943.56 cm**-1
  18:      1033.20 cm**-1
  19:      1155.82 cm**-1
  20:      1169.25 cm**-1
  21:      1244.10 cm**-1
  22:      1343.30 cm**-1
  23:      1380.96 cm**-1
  24:      1391.15 cm**-1
  25:      1430.16 cm**-1
  26:      1436.33 cm**-1
  27:      1441.89 cm**-1
  28:      1452.61 cm**-1
  29:      3037.50 cm**-1
  30:      3041.62 cm**-1
  31:      3062.65 cm**-1
  32:      3130.37 cm**-1
  33:      3132.71 cm**-1
  34:      3161.53 cm**-1
  35:      3176.14 cm**-1

IR SPECTRUM
-----------

 Mode    freq (cm**-1)   T**2         TX         TY         TZ
-------------------------------------------------------------------
   7:        38.52    7.093162  (  2.288301   0.669454  -1.186875)
   8:       121.43   42.688219  ( -2.282344   0.738679  -6.077292)
   9:       231.86    1.481893  ( -1.147154  -0.396858  -0.091838)
  10:       247.70    4.482009  (  0.695155   1.991116   0.184996)
  11:       260.89    1.248479  (  0.024764  -0.440798   1.026432)
  12:       281.36    3.387332  ( -0.713246  -1.668406   0.308273)
  13:       395.20    1.578061  (  0.151137  -1.238900  -0.142636)
  14:       480.40   52.850870  ( -3.188611  -6.180835   2.116817)
  15:       904.35   27.722270  (  0.730381   4.919248  -1.729108)
  16:       933.58   13.410662  (  0.153158  -0.362019   3.640899)
  17:       943.56    0.373695  ( -0.017937   0.145131   0.593557)
  18:      1033.20   48.764379  (  2.075907   6.084192  -2.727195)
  19:      1155.82  118.730344  ( -5.458533  -9.425433   0.309800)
  20:      1169.25   12.791096  (  0.063070   0.619145  -3.521900)
  21:      1244.10  166.430241  ( -3.717813 -11.715179   3.919527)
  22:      1343.30    9.987399  ( -0.136588  -0.427975   3.128191)
  23:      1380.96   10.539457  ( -2.488050   0.066195  -2.084390)
  24:      1391.15   21.614584  ( -3.599528   2.937653   0.167861)
  25:      1430.16    3.933063  (  1.588799  -1.160984  -0.246774)
  26:      1436.33    2.203522  (  1.020633  -0.363969  -1.014573)
  27:      1441.89   23.542349  ( -3.172880   0.646739  -3.613435)
  28:      1452.61    6.570818  ( -1.333649   1.016005  -1.939054)
  29:      3037.50   29.008936  (  0.118555   3.983698   3.622848)
  30:      3041.62   45.725617  (  5.558697   2.735406   2.709992)
  31:      3062.65  241.114640  (  3.300573  -4.022895  14.630009)
  32:      3130.37    5.435467  (  1.540642  -0.665677  -1.618259)
  33:      3132.71   16.970387  ( -0.706968   3.506836  -2.042714)
  34:      3161.53   14.826260  (  3.831257  -0.146584  -0.355303)
  35:      3176.14    7.847064  ( -0.645584  -1.624996  -2.188532)

--------------------------
THERMOCHEMISTRY AT 298.15K
--------------------------

Temperature         ... 298.15 K
Pressure            ... 1.00 atm
Total Mass          ... 205.44 AMU

Throughout the following assumptions are being made:
  (1) The electronic state is orbitally nondegenerate
  (2) There are no thermally accessible electronically excited states
  (3) Hindered rotations indicated by low frequency modes are not
      treated as such but are treated as vibrations and this may
      cause some error
  (4) All equations used are the standard statistical mechanics
      equations for an ideal gas
  (5) All vibrations are strictly harmonic

freq.      38.52  E(vib)   ...       0.54
freq.     121.43  E(vib)   ...       0.44
freq.     231.86  E(vib)   ...       0.32
freq.     247.70  E(vib)   ...       0.31
freq.     260.89  E(vib)   ...       0.30
freq.     281.36  E(vib)   ...       0.28
freq.     395.20  E(vib)   ...       0.20
freq.     480.40  E(vib)   ...       0.15
freq.     904.35  E(vib)   ...       0.03
freq.     933.58  E(vib)   ...       0.03
freq.     943.56  E(vib)   ...       0.03
freq.    1033.20  E(vib)   ...       0.02
freq.    1155.82  E(vib)   ...       0.01
freq.    1169.25  E(vib)   ...       0.01
freq.    1244.10  E(vib)   ...       0.01
freq.    1343.30  E(vib)   ...       0.01
freq.    1380.96  E(vib)   ...       0.01
freq.    1391.15  E(vib)   ...       0.00
freq.    1430.16  E(vib)   ...       0.00
freq.    1436.33  E(vib)   ...       0.00
freq.    1441.89  E(vib)   ...       0.00
freq.    1452.61  E(vib)   ...       0.00
freq.    3037.50  E(vib)   ...       0.00
freq.    3041.62  E(vib)   ...       0.00
freq.    3062.65  E(vib)   ...       0.00
freq.    3130.37  E(vib)   ...       0.00
freq.    3132.71  E(vib)   ...       0.00
freq.    3161.53  E(vib)   ...       0.00
freq.    3176.14  E(vib)   ...       0.00

------------
INNER ENERGY
------------

The inner energy is: U= E(el) + E(ZPE) + E(vib) + E(rot) + E(trans)
    E(el)   - is the total energy from the electronic structure calculation
              = E(kin-el) + E(nuc-el) + E(el-el) + E(nuc-nuc)
    E(ZPE)  - the the zero temperature vibrational energy from the frequency calculation
    E(vib)  - the the finite temperature correction to E(ZPE) due to population
              of excited vibrational states
    E(rot)  - is the rotational thermal energy
    E(trans)- is the translational thermal energy

Summary of contributions to the inner energy U:
Electronic energy                ...   -876.08909432 Eh
Zero point energy                ...      0.09354188 Eh      58.70 kcal/mol
Thermal vibrational correction   ...      0.00430651 Eh       2.70 kcal/mol
Thermal rotational correction    ...      0.00141627 Eh       0.89 kcal/mol
Thermal translational correction ...      0.00141627 Eh       0.89 kcal/mol
-----------------------------------------------------------------------
Total thermal energy                   -875.98841339 Eh

Summary of corrections to the electronic energy:
(perhaps to be used in another calculation)
Total thermal correction                  0.00713905 Eh       4.48 kcal/mol
Non-thermal (ZPE) correction              0.09354188 Eh      58.70 kcal/mol
-----------------------------------------------------------------------
Total correction                          0.10068093 Eh      63.18 kcal/mol

--------
ENTHALPY
--------

The enthalpy is H = U + kB*T
                kB is Boltzmann's constant
Total free energy                 ...   -875.98841339 Eh
Thermal Enthalpy correction       ...      0.00094421 Eh       0.59 kcal/mol
-----------------------------------------------------------------------
Total Enthalpy                    ...   -875.98746918 Eh

Note: Only C1 symmetry has been detected, increase convergence thresholds
      if your molecule has a higher symmetry. Symmetry factor of 1.0 is
      used for the rotational entropy correction.

Note: Rotational entropy computed according to Herzberg
Infrared and Raman Spectra, Chapter V,1, Van Nostrand Reinhold, 1945
Point Group:  C1, Symmetry Number:   1
Rotational constants in cm-1:     0.074939     0.028143     0.023168

Vibrational entropy computed according to the QRRHO of S. Grimme
Chem.Eur.J. 2012 18 9955

-------
ENTROPY
-------

The entropy contributions are T*S = T*(S(el)+S(vib)+S(rot)+S(trans))
     S(el)   - electronic entropy
     S(vib)  - vibrational entropy
     S(rot)  - rotational entropy
     S(trans)- translational entropy
The entropies will be listed as mutliplied by the temperature to get
units of energy

Electronic entropy                ...      0.00000000 Eh      0.00 kcal/mol
Vibrational entropy               ...      0.00760224 Eh      4.77 kcal/mol
Rotational entropy                ...      0.01419704 Eh      8.91 kcal/mol
Translational entropy             ...      0.01989095 Eh     12.48 kcal/mol
-----------------------------------------------------------------------
Final entropy term                ...      0.04169023 Eh     26.16 kcal/mol

In case the symmetry of your molecule has not been determined correctly
or in case you have a reason to use a different symmetry number we print
out the resulting rotational entropy values for sn=1,12 :
 --------------------------------------------------------
|  sn= 1 | S(rot)=       0.01419704 Eh      8.91 kcal/mol|
|  sn= 2 | S(rot)=       0.01354258 Eh      8.50 kcal/mol|
|  sn= 3 | S(rot)=       0.01315975 Eh      8.26 kcal/mol|
|  sn= 4 | S(rot)=       0.01288812 Eh      8.09 kcal/mol|
|  sn= 5 | S(rot)=       0.01267744 Eh      7.96 kcal/mol|
|  sn= 6 | S(rot)=       0.01250529 Eh      7.85 kcal/mol|
|  sn= 7 | S(rot)=       0.01235975 Eh      7.76 kcal/mol|
|  sn= 8 | S(rot)=       0.01223367 Eh      7.68 kcal/mol|
|  sn= 9 | S(rot)=       0.01212246 Eh      7.61 kcal/mol|
|  sn=10 | S(rot)=       0.01202298 Eh      7.54 kcal/mol|
|  sn=11 | S(rot)=       0.01193299 Eh      7.49 kcal/mol|
|  sn=12 | S(rot)=       0.01185084 Eh      7.44 kcal/mol|
 --------------------------------------------------------

-------------------
GIBBS FREE ENERGY
-------------------

The Gibbs free energy is G = H - T*S

Total enthalpy                    ...   -875.98746918 Eh
Total entropy correction          ...     -0.04169023 Eh    -26.16 kcal/mol
-----------------------------------------------------------------------
Final Gibbs free energy         ...   -876.02915941 Eh

For completeness - the Gibbs free energy minus the electronic energy
G-E(el)                           ...      0.05993491 Eh     37.61 kcal/mol

                             ****ORCA TERMINATED NORMALLY****
TOTAL RUN TIME: 0 days 0 hours 1 minutes 14 seconds 267 msec
