                         Program Version 4.2.1 -  RELEASE  -
|  1> ! Freq PBE0 RIJCOSX D3BJ def2-SVP def2/J CPCM(DMF)
|  2> %geom MaxIter 100 end
|  3> %output
|  4> xyzfile=True
|  5> end
|  6> %scf
|  7> maxiter 250
|  8> end
|  9> %output
| 10> Print[P_Hirshfeld] = 1
| 11> end
| 12> % maxcore
| 13> 4000
| 14> %pal nprocs 4
| 15> end
| 16> *xyz -1 1
| 17>   C   -0.76144636220915     -0.24444108274403      0.52868478860705
| 18>   Br  0.12778569327444      0.30244774511492     -1.11069496354561
| 19>   H   -1.48829498205331      0.53368692223868      0.78538498314899
| 20>   H   0.03599547827828     -0.35116745853800      1.28480491843462
| 21>   H   -1.26800260496134     -1.19643604958433      0.32818590012696
| 22>   Cl  2.14259277767109     -0.47111007648723      2.48616437322798
| 23> *
| 24>
| 25>                          ****END OF INPUT****

CARTESIAN COORDINATES (ANGSTROEM)
---------------------------------
  C     -0.761446   -0.244441    0.528685
  Br     0.127786    0.302448   -1.110695
  H     -1.488295    0.533687    0.785385
  H      0.035995   -0.351167    1.284805
  H     -1.268003   -1.196436    0.328186
  Cl     2.142593   -0.471110    2.486164

 Total Charge           Charge          ....   -1
 Multiplicity           Mult            ....    1
 Number of Electrons    NEL             ....   62
 Basis Dimension        Dim             ....   79

ORBITAL ENERGIES
----------------

  NO   OCC          E(Eh)            E(eV)
   0   2.0000    -483.173401    -13147.8167
   1   2.0000    -101.518992     -2762.4722
   2   2.0000     -62.609736     -1703.6975
   3   2.0000     -56.398920     -1534.6926
   4   2.0000     -56.396589     -1534.6292
   5   2.0000     -56.396583     -1534.6290
   6   2.0000     -10.261190      -279.2212
   7   2.0000      -9.366256      -254.8688
   8   2.0000      -8.755097      -238.2383
   9   2.0000      -7.102321      -193.2640
  10   2.0000      -7.101799      -193.2498
  11   2.0000      -7.101747      -193.2484
  12   2.0000      -6.569568      -178.7670
  13   2.0000      -6.557205      -178.4306
  14   2.0000      -6.557056      -178.4266
  15   2.0000      -2.655090       -72.2487
  16   2.0000      -2.651693       -72.1562
  17   2.0000      -2.651538       -72.1520
  18   2.0000      -2.641519       -71.8794
  19   2.0000      -2.641515       -71.8793
  20   2.0000      -0.811086       -22.0708
  21   2.0000      -0.671780       -18.2801
  22   2.0000      -0.659460       -17.9448
  23   2.0000      -0.433721       -11.8021
  24   2.0000      -0.431052       -11.7295
  25   2.0000      -0.384343       -10.4585
  26   2.0000      -0.282414        -7.6849
  27   2.0000      -0.281385        -7.6569
  28   2.0000      -0.212849        -5.7919
  29   2.0000      -0.212791        -5.7903
  30   2.0000      -0.211655        -5.7594
  31   0.0000       0.026808         0.7295
  32   0.0000       0.113926         3.1001
  33   0.0000       0.149858         4.0778
  34   0.0000       0.201274         5.4769
  35   0.0000       0.358497         9.7552

MULLIKEN ATOMIC CHARGES
-----------------------
   0 C :   -0.142118
   1 Br:   -0.241792
   2 H :    0.106379
   3 H :    0.060787
   4 H :    0.103971
   5 Cl:   -0.887227
Sum of atomic charges:   -1.0000000

LOEWDIN ATOMIC CHARGES
----------------------
   0 C :   -0.124051
   1 Br:   -0.047680
   2 H :    0.037978
   3 H :   -0.005966
   4 H :    0.038385
   5 Cl:   -0.898666

  Mayer bond orders larger than 0.100000
B(  0-C ,  1-Br) :   0.9749 B(  0-C ,  2-H ) :   0.9667 B(  0-C ,  3-H ) :   0.9020
B(  0-C ,  4-H ) :   0.9677 B(  3-H ,  5-Cl) :   0.2358

Dispersion correction           -0.003274605
FINAL SINGLE POINT ENERGY     -3073.438779447961

DIPOLE MOMENT
-------------
                                X             Y             Z
Electronic contribution:     -0.87361       3.54781     -13.21027
Nuclear contribution   :     -2.16344      -2.91710       9.71520
                        -----------------------------------------
Total Dipole Moment    :     -3.03705       0.63071      -3.49507
                        -----------------------------------------
Magnitude (a.u.)       :      4.67301
Magnitude (Debye)      :     11.87784

Dispersion correction in the Hessian             ... done   (      0.3 sec)

VIBRATIONAL FREQUENCIES
-----------------------

Scaling factor for frequencies =  1.000000000  (already applied!)

   0:         0.00 cm**-1
   1:         0.00 cm**-1
   2:         0.00 cm**-1
   3:         0.00 cm**-1
   4:         0.00 cm**-1
   5:         0.00 cm**-1
   6:        27.36 cm**-1
   7:       149.36 cm**-1
   8:       181.38 cm**-1
   9:       609.35 cm**-1
  10:       968.05 cm**-1
  11:      1000.65 cm**-1
  12:      1317.02 cm**-1
  13:      1421.04 cm**-1
  14:      1457.12 cm**-1
  15:      3012.80 cm**-1
  16:      3177.27 cm**-1
  17:      3226.44 cm**-1

IR SPECTRUM
-----------

 Mode    freq (cm**-1)   T**2         TX         TY         TZ
-------------------------------------------------------------------
   6:        27.36    7.895162  ( -0.555292   0.678458  -2.669552)
   7:       149.36   41.700249  (  5.138801  -0.520896   3.875777)
   8:       181.38    0.307017  (  0.026011   0.482134   0.271822)
   9:       609.35   21.791502  (  1.905616   1.314737  -4.053590)
  10:       968.05    4.577145  (  0.410946  -2.038570  -0.502493)
  11:      1000.65   16.993518  (  3.343662  -0.136311   2.407253)
  12:      1317.02   50.832909  ( -0.962599  -2.016213   6.770613)
  13:      1421.04    4.649531  (  2.078685   0.380823   0.428456)
  14:      1457.12    4.970503  ( -0.583026   2.104710   0.448081)
  15:      3012.80  195.260030  (-12.493865   0.354014  -6.248044)
  16:      3177.27   72.602089  (  4.818209  -1.606736   6.841444)
  17:      3226.44    2.308409  ( -0.535049  -0.756366  -1.204177)

--------------------------
THERMOCHEMISTRY AT 298.15K
--------------------------

Temperature         ... 298.15 K
Pressure            ... 1.00 atm
Total Mass          ... 130.39 AMU

Throughout the following assumptions are being made:
  (1) The electronic state is orbitally nondegenerate
  (2) There are no thermally accessible electronically excited states
  (3) Hindered rotations indicated by low frequency modes are not
      treated as such but are treated as vibrations and this may
      cause some error
  (4) All equations used are the standard statistical mechanics
      equations for an ideal gas
  (5) All vibrations are strictly harmonic

freq.      27.36  E(vib)   ...       0.55
freq.     149.36  E(vib)   ...       0.40
freq.     181.38  E(vib)   ...       0.37
freq.     609.35  E(vib)   ...       0.10
freq.     968.05  E(vib)   ...       0.03
freq.    1000.65  E(vib)   ...       0.02
freq.    1317.02  E(vib)   ...       0.01
freq.    1421.04  E(vib)   ...       0.00
freq.    1457.12  E(vib)   ...       0.00
freq.    3012.80  E(vib)   ...       0.00
freq.    3177.27  E(vib)   ...       0.00
freq.    3226.44  E(vib)   ...       0.00

------------
INNER ENERGY
------------

The inner energy is: U= E(el) + E(ZPE) + E(vib) + E(rot) + E(trans)
    E(el)   - is the total energy from the electronic structure calculation
              = E(kin-el) + E(nuc-el) + E(el-el) + E(nuc-nuc)
    E(ZPE)  - the the zero temperature vibrational energy from the frequency calculation
    E(vib)  - the the finite temperature correction to E(ZPE) due to population
              of excited vibrational states
    E(rot)  - is the rotational thermal energy
    E(trans)- is the translational thermal energy

Summary of contributions to the inner energy U:
Electronic energy                ...  -3073.43877945 Eh
Zero point energy                ...      0.03769876 Eh      23.66 kcal/mol
Thermal vibrational correction   ...      0.00237470 Eh       1.49 kcal/mol
Thermal rotational correction    ...      0.00141627 Eh       0.89 kcal/mol
Thermal translational correction ...      0.00141627 Eh       0.89 kcal/mol
-----------------------------------------------------------------------
Total thermal energy                  -3073.39587344 Eh

Summary of corrections to the electronic energy:
(perhaps to be used in another calculation)
Total thermal correction                  0.00520724 Eh       3.27 kcal/mol
Non-thermal (ZPE) correction              0.03769876 Eh      23.66 kcal/mol
-----------------------------------------------------------------------
Total correction                          0.04290600 Eh      26.92 kcal/mol

--------
ENTHALPY
--------

The enthalpy is H = U + kB*T
                kB is Boltzmann's constant
Total free energy                 ...  -3073.39587344 Eh
Thermal Enthalpy correction       ...      0.00094421 Eh       0.59 kcal/mol
-----------------------------------------------------------------------
Total Enthalpy                    ...  -3073.39492923 Eh

Note: Only C1 symmetry has been detected, increase convergence thresholds
      if your molecule has a higher symmetry. Symmetry factor of 1.0 is
      used for the rotational entropy correction.

Note: Rotational entropy computed according to Herzberg
Infrared and Raman Spectra, Chapter V,1, Van Nostrand Reinhold, 1945
Point Group:  C1, Symmetry Number:   1
Rotational constants in cm-1:     0.427915     0.038718     0.035752

Vibrational entropy computed according to the QRRHO of S. Grimme
Chem.Eur.J. 2012 18 9955

-------
ENTROPY
-------

The entropy contributions are T*S = T*(S(el)+S(vib)+S(rot)+S(trans))
     S(el)   - electronic entropy
     S(vib)  - vibrational entropy
     S(rot)  - rotational entropy
     S(trans)- translational entropy
The entropies will be listed as mutliplied by the temperature to get
units of energy

Electronic entropy                ...      0.00000000 Eh      0.00 kcal/mol
Vibrational entropy               ...      0.00465460 Eh      2.92 kcal/mol
Rotational entropy                ...      0.01301912 Eh      8.17 kcal/mol
Translational entropy             ...      0.01924704 Eh     12.08 kcal/mol
-----------------------------------------------------------------------
Final entropy term                ...      0.03692076 Eh     23.17 kcal/mol

In case the symmetry of your molecule has not been determined correctly
or in case you have a reason to use a different symmetry number we print
out the resulting rotational entropy values for sn=1,12 :
 --------------------------------------------------------
|  sn= 1 | S(rot)=       0.01301912 Eh      8.17 kcal/mol|
|  sn= 2 | S(rot)=       0.01236467 Eh      7.76 kcal/mol|
|  sn= 3 | S(rot)=       0.01198184 Eh      7.52 kcal/mol|
|  sn= 4 | S(rot)=       0.01171021 Eh      7.35 kcal/mol|
|  sn= 5 | S(rot)=       0.01149952 Eh      7.22 kcal/mol|
|  sn= 6 | S(rot)=       0.01132738 Eh      7.11 kcal/mol|
|  sn= 7 | S(rot)=       0.01118183 Eh      7.02 kcal/mol|
|  sn= 8 | S(rot)=       0.01105576 Eh      6.94 kcal/mol|
|  sn= 9 | S(rot)=       0.01094455 Eh      6.87 kcal/mol|
|  sn=10 | S(rot)=       0.01084507 Eh      6.81 kcal/mol|
|  sn=11 | S(rot)=       0.01075508 Eh      6.75 kcal/mol|
|  sn=12 | S(rot)=       0.01067292 Eh      6.70 kcal/mol|
 --------------------------------------------------------

-------------------
GIBBS FREE ENERGY
-------------------

The Gibbs free energy is G = H - T*S

Total enthalpy                    ...  -3073.39492923 Eh
Total entropy correction          ...     -0.03692076 Eh    -23.17 kcal/mol
-----------------------------------------------------------------------
Final Gibbs free energy         ...  -3073.43185000 Eh

For completeness - the Gibbs free energy minus the electronic energy
G-E(el)                           ...      0.00692945 Eh      4.35 kcal/mol

                             ****ORCA TERMINATED NORMALLY****
TOTAL RUN TIME: 0 days 0 hours 0 minutes 19 seconds 187 msec
