                         Program Version 4.2.1 -  RELEASE  -
|  1> ! Freq PBE0 RIJCOSX D3BJ def2-SVP def2/J CPCM(Acetone)
|  2> %geom MaxIter 100 end
|  3> %output
|  4> xyzfile=True
|  5> end
|  6> %scf
|  7> maxiter 250
|  8> end
|  9> %output
| 10> Print[P_Hirshfeld] = 1
| 11> end
| 12> % maxcore
| 13> 4000
| 14> %pal nprocs 4
| 15> end
| 16> *xyz -1 1
| 17>   C   -2.75363457998359      0.29891389448776      0.68756920871954
| 18>   C   -1.75432579734293      0.19337747110284     -0.45601846113805
| 19>   C   -0.37546746179491      0.61887096363067     -0.00622999821366
| 20>   Br  0.95369677298775      0.30792368156749     -1.41782210437070
| 21>   H   -3.73364089105380     -0.09825978258097      0.38067143964849
| 22>   H   -2.38395290098653     -0.26869413594546      1.55658189769508
| 23>   H   -2.89654113191209      1.34448427381389      1.00494577798537
| 24>   H   -1.70553778076171     -0.85062150148346     -0.80707925103905
| 25>   H   -2.07576318783343      0.79985291843412     -1.31900330162960
| 26>   H   -0.03910414355461      0.04147099049151      0.87146246613800
| 27>   H   -0.31515433857997      1.69370016071346      0.21433951668242
| 28>   Cl  -0.16115455918415     -1.16584893423184      3.00515280952215
| 29> *
| 30>
| 31>                          ****END OF INPUT****

CARTESIAN COORDINATES (ANGSTROEM)
---------------------------------
  C     -2.753635    0.298914    0.687569
  C     -1.754326    0.193377   -0.456018
  C     -0.375467    0.618871   -0.006230
  Br     0.953697    0.307924   -1.417822
  H     -3.733641   -0.098260    0.380671
  H     -2.383953   -0.268694    1.556582
  H     -2.896541    1.344484    1.004946
  H     -1.705538   -0.850622   -0.807079
  H     -2.075763    0.799853   -1.319003
  H     -0.039104    0.041471    0.871462
  H     -0.315154    1.693700    0.214340
  Cl    -0.161155   -1.165849    3.005153

 Total Charge           Charge          ....   -1
 Multiplicity           Mult            ....    1
 Number of Electrons    NEL             ....   78
 Basis Dimension        Dim             ....  127

ORBITAL ENERGIES
----------------

  NO   OCC          E(Eh)            E(eV)
   0   2.0000    -483.168316    -13147.6783
   1   2.0000    -101.520738     -2762.5197
   2   2.0000     -62.604715     -1703.5609
   3   2.0000     -56.393836     -1534.5543
   4   2.0000     -56.391670     -1534.4954
   5   2.0000     -56.391555     -1534.4922
   6   2.0000     -10.261533      -279.2305
   7   2.0000     -10.224994      -278.2362
   8   2.0000     -10.210021      -277.8288
   9   2.0000      -9.367917      -254.9140
  10   2.0000      -8.750038      -238.1006
  11   2.0000      -7.103813      -193.3046
  12   2.0000      -7.103605      -193.2989
  13   2.0000      -7.103356      -193.2921
  14   2.0000      -6.564072      -178.6175
  15   2.0000      -6.552361      -178.2988
  16   2.0000      -6.552243      -178.2956
  17   2.0000      -2.649742       -72.1031
  18   2.0000      -2.646364       -72.0112
  19   2.0000      -2.646305       -72.0096
  20   2.0000      -2.636856       -71.7525
  21   2.0000      -2.636846       -71.7522
  22   2.0000      -0.826334       -22.4857
  23   2.0000      -0.761536       -20.7225
  24   2.0000      -0.670716       -18.2511
  25   2.0000      -0.658913       -17.9299
  26   2.0000      -0.585380       -15.9290
  27   2.0000      -0.474952       -12.9241
  28   2.0000      -0.434609       -11.8263
  29   2.0000      -0.412553       -11.2261
  30   2.0000      -0.396552       -10.7907
  31   2.0000      -0.351995        -9.5783
  32   2.0000      -0.343305        -9.3418
  33   2.0000      -0.332748        -9.0545
  34   2.0000      -0.279615        -7.6087
  35   2.0000      -0.278837        -7.5875
  36   2.0000      -0.213011        -5.7963
  37   2.0000      -0.212116        -5.7720
  38   2.0000      -0.208744        -5.6802
  39   0.0000       0.026902         0.7320
  40   0.0000       0.099639         2.7113
  41   0.0000       0.123708         3.3663
  42   0.0000       0.137283         3.7357
  43   0.0000       0.152856         4.1594

MULLIKEN ATOMIC CHARGES
-----------------------
   0 C :   -0.089405
   1 C :   -0.080841
   2 C :   -0.117247
   3 Br:   -0.223704
   4 H :    0.044116
   5 H :    0.016067
   6 H :    0.039708
   7 H :    0.046611
   8 H :    0.048011
   9 H :    0.059713
  10 H :    0.094383
  11 Cl:   -0.837412
Sum of atomic charges:   -1.0000000

LOEWDIN ATOMIC CHARGES
----------------------
   0 C :   -0.079578
   1 C :   -0.070472
   2 C :   -0.088808
   3 Br:   -0.053692
   4 H :    0.030239
   5 H :    0.008183
   6 H :    0.026816
   7 H :    0.028663
   8 H :    0.026342
   9 H :   -0.003137
  10 H :    0.033844
  11 Cl:   -0.858400

  Mayer bond orders larger than 0.100000
B(  0-C ,  1-C ) :   1.0887 B(  0-C ,  4-H ) :   0.9664 B(  0-C ,  5-H ) :   0.9435
B(  0-C ,  6-H ) :   0.9712 B(  1-C ,  2-C ) :   1.0410 B(  1-C ,  7-H ) :   0.9479
B(  1-C ,  8-H ) :   0.9531 B(  2-C ,  3-Br) :   0.9653 B(  2-C ,  9-H ) :   0.8920
B(  2-C , 10-H ) :   0.9481 B(  5-H , 11-Cl) :   0.1306 B(  9-H , 11-Cl) :   0.2120

Dispersion correction           -0.008732973
FINAL SINGLE POINT ENERGY     -3151.922982880353

DIPOLE MOMENT
-------------
                                X             Y             Z
Electronic contribution:     20.67260       0.83581     -15.23617
Nuclear contribution   :    -21.01197       1.18516      10.86099
                        -----------------------------------------
Total Dipole Moment    :     -0.33937       2.02097      -4.37518
                        -----------------------------------------
Magnitude (a.u.)       :      4.83132
Magnitude (Debye)      :     12.28025

Dispersion correction in the Hessian             ... done   (      0.6 sec)

VIBRATIONAL FREQUENCIES
-----------------------

Scaling factor for frequencies =  1.000000000  (already applied!)

   0:         0.00 cm**-1
   1:         0.00 cm**-1
   2:         0.00 cm**-1
   3:         0.00 cm**-1
   4:         0.00 cm**-1
   5:         0.00 cm**-1
   6:        42.71 cm**-1
   7:        70.15 cm**-1
   8:       111.49 cm**-1
   9:       139.04 cm**-1
  10:       218.10 cm**-1
  11:       273.24 cm**-1
  12:       313.38 cm**-1
  13:       646.40 cm**-1
  14:       757.28 cm**-1
  15:       865.26 cm**-1
  16:       920.04 cm**-1
  17:      1053.99 cm**-1
  18:      1075.48 cm**-1
  19:      1125.57 cm**-1
  20:      1228.83 cm**-1
  21:      1262.30 cm**-1
  22:      1306.24 cm**-1
  23:      1354.56 cm**-1
  24:      1385.99 cm**-1
  25:      1449.11 cm**-1
  26:      1452.34 cm**-1
  27:      1462.52 cm**-1
  28:      1477.77 cm**-1
  29:      3037.55 cm**-1
  30:      3053.74 cm**-1
  31:      3064.20 cm**-1
  32:      3110.49 cm**-1
  33:      3137.35 cm**-1
  34:      3147.19 cm**-1
  35:      3164.80 cm**-1

IR SPECTRUM
-----------

 Mode    freq (cm**-1)   T**2         TX         TY         TZ
-------------------------------------------------------------------
   6:        42.71   10.723157  (  2.285128   0.078914  -2.344167)
   7:        70.15    5.511320  ( -1.987868   0.186249  -1.234913)
   8:       111.49   22.733969  (  1.947048  -1.989083   3.871243)
   9:       139.04   17.403572  (  0.155239   2.492092  -3.341998)
  10:       218.10    0.880930  ( -0.851914  -0.064192  -0.388655)
  11:       273.24    2.430727  ( -0.374744   1.096269  -1.043306)
  12:       313.38    4.809650  ( -2.091990   0.537433   0.379992)
  13:       646.40   62.611217  ( -5.219420  -0.132190   5.945704)
  14:       757.28   12.811919  ( -1.370034   2.772137  -1.802826)
  15:       865.26    3.627477  (  0.288484  -1.492965   1.146870)
  16:       920.04   20.047670  ( -4.459432  -0.169156  -0.364036)
  17:      1053.99    0.978979  (  0.171108  -0.446407  -0.866269)
  18:      1075.48    3.737207  ( -1.828633   0.404577   0.479192)
  19:      1125.57    2.933324  (  1.468859   0.366244   0.801025)
  20:      1228.83   14.162502  ( -2.378421   0.535832   2.866793)
  21:      1262.30   34.884495  ( -5.217549   2.276788   1.574137)
  22:      1306.24    3.920301  (  1.468336  -1.303639   0.254587)
  23:      1354.56   20.676580  (  4.019067  -1.228192  -1.736439)
  24:      1385.99    2.034690  (  1.154332  -0.451603   0.705878)
  25:      1449.11    2.992132  ( -0.398432   1.611145   0.487438)
  26:      1452.34    3.829955  ( -1.451895  -1.094379   0.724079)
  27:      1462.52    2.280044  (  1.318316  -0.201405   0.708182)
  28:      1477.77    9.122559  (  2.263060   0.670509   1.884552)
  29:      3037.55   53.546633  (  6.638521  -1.996223  -2.343452)
  30:      3053.74  143.072119  (  1.017589  -5.802892  10.409758)
  31:      3064.20   25.387730  (  1.638238   4.756902   0.275301)
  32:      3110.49   25.531229  ( -1.769010   3.356609  -3.336915)
  33:      3137.35   36.977803  ( -1.561692  -5.780461  -1.060749)
  34:      3147.19    8.667824  ( -1.997418  -1.688886  -1.351225)
  35:      3164.80   45.516962  ( -0.409315   0.883341   6.676012)

--------------------------
THERMOCHEMISTRY AT 298.15K
--------------------------

Temperature         ... 298.15 K
Pressure            ... 1.00 atm
Total Mass          ... 158.44 AMU

Throughout the following assumptions are being made:
  (1) The electronic state is orbitally nondegenerate
  (2) There are no thermally accessible electronically excited states
  (3) Hindered rotations indicated by low frequency modes are not
      treated as such but are treated as vibrations and this may
      cause some error
  (4) All equations used are the standard statistical mechanics
      equations for an ideal gas
  (5) All vibrations are strictly harmonic

freq.      42.71  E(vib)   ...       0.53
freq.      70.15  E(vib)   ...       0.50
freq.     111.49  E(vib)   ...       0.45
freq.     139.04  E(vib)   ...       0.42
freq.     218.10  E(vib)   ...       0.33
freq.     273.24  E(vib)   ...       0.29
freq.     313.38  E(vib)   ...       0.25
freq.     646.40  E(vib)   ...       0.09
freq.     757.28  E(vib)   ...       0.06
freq.     865.26  E(vib)   ...       0.04
freq.     920.04  E(vib)   ...       0.03
freq.    1053.99  E(vib)   ...       0.02
freq.    1075.48  E(vib)   ...       0.02
freq.    1125.57  E(vib)   ...       0.01
freq.    1228.83  E(vib)   ...       0.01
freq.    1262.30  E(vib)   ...       0.01
freq.    1306.24  E(vib)   ...       0.01
freq.    1354.56  E(vib)   ...       0.01
freq.    1385.99  E(vib)   ...       0.00
freq.    1449.11  E(vib)   ...       0.00
freq.    1452.34  E(vib)   ...       0.00
freq.    1462.52  E(vib)   ...       0.00
freq.    1477.77  E(vib)   ...       0.00
freq.    3037.55  E(vib)   ...       0.00
freq.    3053.74  E(vib)   ...       0.00
freq.    3064.20  E(vib)   ...       0.00
freq.    3110.49  E(vib)   ...       0.00
freq.    3137.35  E(vib)   ...       0.00
freq.    3147.19  E(vib)   ...       0.00
freq.    3164.80  E(vib)   ...       0.00

------------
INNER ENERGY
------------

The inner energy is: U= E(el) + E(ZPE) + E(vib) + E(rot) + E(trans)
    E(el)   - is the total energy from the electronic structure calculation
              = E(kin-el) + E(nuc-el) + E(el-el) + E(nuc-nuc)
    E(ZPE)  - the the zero temperature vibrational energy from the frequency calculation
    E(vib)  - the the finite temperature correction to E(ZPE) due to population
              of excited vibrational states
    E(rot)  - is the rotational thermal energy
    E(trans)- is the translational thermal energy

Summary of contributions to the inner energy U:
Electronic energy                ...  -3151.92298288 Eh
Zero point energy                ...      0.09501583 Eh      59.62 kcal/mol
Thermal vibrational correction   ...      0.00490871 Eh       3.08 kcal/mol
Thermal rotational correction    ...      0.00141627 Eh       0.89 kcal/mol
Thermal translational correction ...      0.00141627 Eh       0.89 kcal/mol
-----------------------------------------------------------------------
Total thermal energy                  -3151.82022580 Eh

Summary of corrections to the electronic energy:
(perhaps to be used in another calculation)
Total thermal correction                  0.00774125 Eh       4.86 kcal/mol
Non-thermal (ZPE) correction              0.09501583 Eh      59.62 kcal/mol
-----------------------------------------------------------------------
Total correction                          0.10275708 Eh      64.48 kcal/mol

--------
ENTHALPY
--------

The enthalpy is H = U + kB*T
                kB is Boltzmann's constant
Total free energy                 ...  -3151.82022580 Eh
Thermal Enthalpy correction       ...      0.00094421 Eh       0.59 kcal/mol
-----------------------------------------------------------------------
Total Enthalpy                    ...  -3151.81928160 Eh

Note: Only C1 symmetry has been detected, increase convergence thresholds
      if your molecule has a higher symmetry. Symmetry factor of 1.0 is
      used for the rotational entropy correction.

Note: Rotational entropy computed according to Herzberg
Infrared and Raman Spectra, Chapter V,1, Van Nostrand Reinhold, 1945
Point Group:  C1, Symmetry Number:   1
Rotational constants in cm-1:     0.083294     0.027603     0.021274

Vibrational entropy computed according to the QRRHO of S. Grimme
Chem.Eur.J. 2012 18 9955

-------
ENTROPY
-------

The entropy contributions are T*S = T*(S(el)+S(vib)+S(rot)+S(trans))
     S(el)   - electronic entropy
     S(vib)  - vibrational entropy
     S(rot)  - rotational entropy
     S(trans)- translational entropy
The entropies will be listed as mutliplied by the temperature to get
units of energy

Electronic entropy                ...      0.00000000 Eh      0.00 kcal/mol
Vibrational entropy               ...      0.00910035 Eh      5.71 kcal/mol
Rotational entropy                ...      0.01419653 Eh      8.91 kcal/mol
Translational entropy             ...      0.01952304 Eh     12.25 kcal/mol
-----------------------------------------------------------------------
Final entropy term                ...      0.04281991 Eh     26.87 kcal/mol

In case the symmetry of your molecule has not been determined correctly
or in case you have a reason to use a different symmetry number we print
out the resulting rotational entropy values for sn=1,12 :
 --------------------------------------------------------
|  sn= 1 | S(rot)=       0.01419653 Eh      8.91 kcal/mol|
|  sn= 2 | S(rot)=       0.01354207 Eh      8.50 kcal/mol|
|  sn= 3 | S(rot)=       0.01315924 Eh      8.26 kcal/mol|
|  sn= 4 | S(rot)=       0.01288761 Eh      8.09 kcal/mol|
|  sn= 5 | S(rot)=       0.01267693 Eh      7.95 kcal/mol|
|  sn= 6 | S(rot)=       0.01250478 Eh      7.85 kcal/mol|
|  sn= 7 | S(rot)=       0.01235924 Eh      7.76 kcal/mol|
|  sn= 8 | S(rot)=       0.01223316 Eh      7.68 kcal/mol|
|  sn= 9 | S(rot)=       0.01212195 Eh      7.61 kcal/mol|
|  sn=10 | S(rot)=       0.01202247 Eh      7.54 kcal/mol|
|  sn=11 | S(rot)=       0.01193248 Eh      7.49 kcal/mol|
|  sn=12 | S(rot)=       0.01185033 Eh      7.44 kcal/mol|
 --------------------------------------------------------

-------------------
GIBBS FREE ENERGY
-------------------

The Gibbs free energy is G = H - T*S

Total enthalpy                    ...  -3151.81928160 Eh
Total entropy correction          ...     -0.04281991 Eh    -26.87 kcal/mol
-----------------------------------------------------------------------
Final Gibbs free energy         ...  -3151.86210151 Eh

For completeness - the Gibbs free energy minus the electronic energy
G-E(el)                           ...      0.06088137 Eh     38.20 kcal/mol

                             ****ORCA TERMINATED NORMALLY****
TOTAL RUN TIME: 0 days 0 hours 0 minutes 59 seconds 89 msec
