                         Program Version 4.2.1 -  RELEASE  -
|  1> ! Freq PBE0 RIJCOSX D3BJ def2-SVP def2/J CPCM(Acetone)
|  2> %geom MaxIter 100 end
|  3> %output
|  4> xyzfile=True
|  5> end
|  6> %scf
|  7> maxiter 250
|  8> end
|  9> %output
| 10> Print[P_Hirshfeld] = 1
| 11> end
| 12> % maxcore
| 13> 4000
| 14> %pal nprocs 4
| 15> end
| 16> *xyz -1 1
| 17>   C   -0.22903136734321      1.47754552303087     -2.41477131458861
| 18>   C   -0.61212666487172      0.14062203556538     -1.80747691104674
| 19>   C   -2.11764831429387     -0.00167824687765     -1.69562740850566
| 20>   C   0.01280056549135     -1.02969460801638     -2.54641989355266
| 21>   Br  0.11456926452728      0.09931059977573      0.06521937667724
| 22>   H   -0.61793388794388      1.52178755071493     -3.44622703869902
| 23>   H   -0.66888220702214      2.31138556874945     -1.84938402674032
| 24>   H   0.86198404375437      1.60757739774388     -2.45115007661822
| 25>   H   -2.55739351561619      0.04614939943910     -2.70626499885095
| 26>   H   -2.55313842838996      0.80968985451041     -1.09611932706885
| 27>   H   -2.39998072148067     -0.96308321965642     -1.24194137944686
| 28>   H   -0.22946205312162     -1.98362573199595     -2.05569589352787
| 29>   H   1.10656990564495     -0.93252258556434     -2.60843950441769
| 30>   H   -0.38986499913805     -1.06193315996416     -3.57279226449166
| 31>   Br  1.06437837980339     -0.45066037745486      3.54858066087790
| 32> *
| 33>
| 34>                          ****END OF INPUT****

CARTESIAN COORDINATES (ANGSTROEM)
---------------------------------
  C     -0.229031    1.477546   -2.414771
  C     -0.612127    0.140622   -1.807477
  C     -2.117648   -0.001678   -1.695627
  C      0.012801   -1.029695   -2.546420
  Br     0.114569    0.099311    0.065219
  H     -0.617934    1.521788   -3.446227
  H     -0.668882    2.311386   -1.849384
  H      0.861984    1.607577   -2.451150
  H     -2.557394    0.046149   -2.706265
  H     -2.553138    0.809690   -1.096119
  H     -2.399981   -0.963083   -1.241941
  H     -0.229462   -1.983626   -2.055696
  H      1.106570   -0.932523   -2.608440
  H     -0.389865   -1.061933   -3.572792
  Br     1.064378   -0.450660    3.548581

 Total Charge           Charge          ....   -1
 Multiplicity           Mult            ....    1
 Number of Electrons    NEL             ....  104
 Basis Dimension        Dim             ....  165

ORBITAL ENERGIES
----------------

  NO   OCC          E(Eh)            E(eV)
   0   2.0000    -483.161836    -13147.5020
   1   2.0000    -483.061195    -13144.7634
   2   2.0000     -62.597558     -1703.3662
   3   2.0000     -62.496540     -1700.6173
   4   2.0000     -56.386740     -1534.3612
   5   2.0000     -56.384454     -1534.2990
   6   2.0000     -56.384439     -1534.2986
   7   2.0000     -56.284397     -1531.5763
   8   2.0000     -56.284380     -1531.5758
   9   2.0000     -56.284349     -1531.5750
  10   2.0000     -10.289780      -279.9991
  11   2.0000     -10.224658      -278.2271
  12   2.0000     -10.224589      -278.2252
  13   2.0000     -10.224241      -278.2158
  14   2.0000      -8.742501      -237.8955
  15   2.0000      -8.639977      -235.1057
  16   2.0000      -6.556506      -178.4116
  17   2.0000      -6.544724      -178.0910
  18   2.0000      -6.544709      -178.0906
  19   2.0000      -6.446473      -175.4175
  20   2.0000      -6.446190      -175.4098
  21   2.0000      -6.446186      -175.4096
  22   2.0000      -2.641993       -71.8923
  23   2.0000      -2.638844       -71.8066
  24   2.0000      -2.638818       -71.8059
  25   2.0000      -2.629299       -71.5469
  26   2.0000      -2.629282       -71.5464
  27   2.0000      -2.533270       -68.9338
  28   2.0000      -2.533225       -68.9326
  29   2.0000      -2.533208       -68.9321
  30   2.0000      -2.532994       -68.9263
  31   2.0000      -2.532985       -68.9260
  32   2.0000      -0.853207       -23.2170
  33   2.0000      -0.742878       -20.2147
  34   2.0000      -0.701664       -19.0932
  35   2.0000      -0.700648       -19.0656
  36   2.0000      -0.649470       -17.6730
  37   2.0000      -0.547404       -14.8956
  38   2.0000      -0.468767       -12.7558
  39   2.0000      -0.454874       -12.3777
  40   2.0000      -0.454189       -12.3591
  41   2.0000      -0.399927       -10.8826
  42   2.0000      -0.398752       -10.8506
  43   2.0000      -0.373277       -10.1574
  44   2.0000      -0.352765        -9.5992
  45   2.0000      -0.352080        -9.5806
  46   2.0000      -0.328283        -8.9330
  47   2.0000      -0.275980        -7.5098
  48   2.0000      -0.275661        -7.5011
  49   2.0000      -0.213034        -5.7969
  50   2.0000      -0.212882        -5.7928
  51   2.0000      -0.209815        -5.7094
  52   0.0000       0.016918         0.4604
  53   0.0000       0.073032         1.9873
  54   0.0000       0.132052         3.5933
  55   0.0000       0.132801         3.6137
  56   0.0000       0.138114         3.7583

MULLIKEN ATOMIC CHARGES
-----------------------
   0 C :    0.025673
   1 C :   -0.453346
   2 C :    0.024426
   3 C :    0.027557
   4 Br:   -0.157877
   5 H :    0.055881
   6 H :    0.053858
   7 H :    0.057742
   8 H :    0.056681
   9 H :    0.056698
  10 H :    0.054685
  11 H :    0.055122
  12 H :    0.058395
  13 H :    0.055162
  14 Br:   -0.970655
Sum of atomic charges:   -1.0000000

LOEWDIN ATOMIC CHARGES
----------------------
   0 C :   -0.070120
   1 C :   -0.100561
   2 C :   -0.069925
   3 C :   -0.070434
   4 Br:   -0.035101
   5 H :    0.039195
   6 H :    0.033498
   7 H :    0.033539
   8 H :    0.039023
   9 H :    0.033291
  10 H :    0.033353
  11 H :    0.033380
  12 H :    0.033944
  13 H :    0.038864
  14 Br:   -0.971947

  Mayer bond orders larger than 0.100000
B(  0-C ,  1-C ) :   1.0062 B(  0-C ,  5-H ) :   0.9531 B(  0-C ,  6-H ) :   0.9642
B(  0-C ,  7-H ) :   0.9647 B(  1-C ,  2-C ) :   1.0037 B(  1-C ,  3-C ) :   1.0070
B(  1-C ,  4-Br) :   0.9576 B(  2-C ,  8-H ) :   0.9547 B(  2-C ,  9-H ) :   0.9657
B(  2-C , 10-H ) :   0.9658 B(  3-C , 11-H ) :   0.9642 B(  3-C , 12-H ) :   0.9653
B(  3-C , 13-H ) :   0.9530

Dispersion correction           -0.012072006
FINAL SINGLE POINT ENERGY     -5304.824917135414

DIPOLE MOMENT
-------------
                                X             Y             Z
Electronic contribution:     13.63359      -2.95408      39.49360
Nuclear contribution   :    -15.53903       3.61618     -45.53818
                        -----------------------------------------
Total Dipole Moment    :     -1.90544       0.66210      -6.04458
                        -----------------------------------------
Magnitude (a.u.)       :      6.37228
Magnitude (Debye)      :     16.19706

Dispersion correction in the Hessian             ... done   (      0.8 sec)

VIBRATIONAL FREQUENCIES
-----------------------

Scaling factor for frequencies =  1.000000000  (already applied!)

   0:         0.00 cm**-1
   1:         0.00 cm**-1
   2:         0.00 cm**-1
   3:         0.00 cm**-1
   4:         0.00 cm**-1
   5:         0.00 cm**-1
   6:        18.59 cm**-1
   7:        25.65 cm**-1
   8:        40.64 cm**-1
   9:       247.27 cm**-1
  10:       269.09 cm**-1
  11:       272.46 cm**-1
  12:       296.26 cm**-1
  13:       298.46 cm**-1
  14:       299.88 cm**-1
  15:       394.59 cm**-1
  16:       398.48 cm**-1
  17:       520.59 cm**-1
  18:       831.22 cm**-1
  19:       938.69 cm**-1
  20:       939.20 cm**-1
  21:       958.24 cm**-1
  22:      1036.80 cm**-1
  23:      1037.90 cm**-1
  24:      1147.85 cm**-1
  25:      1260.75 cm**-1
  26:      1261.24 cm**-1
  27:      1376.70 cm**-1
  28:      1377.88 cm**-1
  29:      1391.25 cm**-1
  30:      1425.92 cm**-1
  31:      1436.70 cm**-1
  32:      1437.35 cm**-1
  33:      1449.54 cm**-1
  34:      1450.17 cm**-1
  35:      1464.97 cm**-1
  36:      3047.19 cm**-1
  37:      3047.26 cm**-1
  38:      3052.06 cm**-1
  39:      3142.66 cm**-1
  40:      3143.10 cm**-1
  41:      3146.00 cm**-1
  42:      3166.66 cm**-1
  43:      3170.01 cm**-1
  44:      3171.61 cm**-1

IR SPECTRUM
-----------

 Mode    freq (cm**-1)   T**2         TX         TY         TZ
-------------------------------------------------------------------
   6:        18.59    0.823300  ( -0.226770   0.154904  -0.864800)
   7:        25.65    0.176783  ( -0.150776   0.099526  -0.379663)
   8:        40.64   17.333971  ( -1.230876   0.457880  -3.950856)
   9:       247.27    0.014134  (  0.105108   0.052822   0.017204)
  10:       269.09    0.541756  ( -0.518543  -0.501438   0.146387)
  11:       272.46    0.610200  (  0.472754  -0.571882  -0.244244)
  12:       296.26    0.229168  ( -0.190313  -0.388413   0.205143)
  13:       298.46    1.045190  (  0.094346   0.362098   0.951406)
  14:       299.88    3.438169  (  0.978647  -0.021326   1.574790)
  15:       394.59    0.114175  (  0.332070   0.062084   0.007028)
  16:       398.48    0.120152  (  0.015957  -0.302369  -0.168733)
  17:       520.59   20.833615  (  1.741421  -0.014468   4.219106)
  18:       831.22    9.654140  (  1.118896  -0.051521   2.898199)
  19:       938.69    0.503979  ( -0.673074   0.147188   0.171131)
  20:       939.20    0.460156  (  0.160860   0.658993  -0.002908)
  21:       958.24    0.009022  (  0.067668  -0.037772  -0.054924)
  22:      1036.80    0.673902  (  0.436125   0.656472  -0.229656)
  23:      1037.90    0.643022  ( -0.624176   0.457134   0.210842)
  24:      1147.85  181.216957  ( -4.793127   0.311660 -12.575602)
  25:      1260.75    9.671299  ( -0.441786   3.066667   0.267725)
  26:      1261.24    8.547076  (  2.743952   0.459194  -0.898301)
  27:      1376.70   27.476469  (  0.596592  -5.198957  -0.302317)
  28:      1377.88   26.359563  (  4.801053   0.565443  -1.729084)
  29:      1391.25    1.045498  (  0.751408  -0.031826   0.692727)
  30:      1425.92    0.006546  (  0.005578   0.075940  -0.027342)
  31:      1436.70    0.244809  ( -0.411009  -0.105931   0.254281)
  32:      1437.35    0.268120  ( -0.100507   0.507417   0.023374)
  33:      1449.54   11.461789  (  1.180950   3.138269  -0.467349)
  34:      1450.17   11.065714  (  2.830923  -1.288764  -1.179270)
  35:      1464.97    8.212614  (  1.098184  -0.020228   2.646922)
  36:      3047.19   18.921807  (  0.114352   4.348416   0.003074)
  37:      3047.26   18.141580  (  3.951173  -0.119196  -1.586066)
  38:      3052.06   41.803704  (  2.318396  -0.198315   6.032364)
  39:      3142.66    4.141171  ( -1.906931   0.582490   0.406806)
  40:      3143.10    7.371904  ( -0.712908  -2.425838   0.989433)
  41:      3146.00   43.151617  ( -2.321661   0.204992  -6.141619)
  42:      3166.66   13.830000  (  2.879740   2.073204  -1.113070)
  43:      3170.01   15.812940  ( -0.702501  -3.894964  -0.385601)
  44:      3171.61   21.212843  ( -3.690233   2.305186   1.510347)

--------------------------
THERMOCHEMISTRY AT 298.15K
--------------------------

Temperature         ... 298.15 K
Pressure            ... 1.00 atm
Total Mass          ... 216.92 AMU

Throughout the following assumptions are being made:
  (1) The electronic state is orbitally nondegenerate
  (2) There are no thermally accessible electronically excited states
  (3) Hindered rotations indicated by low frequency modes are not
      treated as such but are treated as vibrations and this may
      cause some error
  (4) All equations used are the standard statistical mechanics
      equations for an ideal gas
  (5) All vibrations are strictly harmonic

freq.      18.59  E(vib)   ...       0.57
freq.      25.65  E(vib)   ...       0.56
freq.      40.64  E(vib)   ...       0.54
freq.     247.27  E(vib)   ...       0.31
freq.     269.09  E(vib)   ...       0.29
freq.     272.46  E(vib)   ...       0.29
freq.     296.26  E(vib)   ...       0.27
freq.     298.46  E(vib)   ...       0.26
freq.     299.88  E(vib)   ...       0.26
freq.     394.59  E(vib)   ...       0.20
freq.     398.48  E(vib)   ...       0.20
freq.     520.59  E(vib)   ...       0.13
freq.     831.22  E(vib)   ...       0.04
freq.     938.69  E(vib)   ...       0.03
freq.     939.20  E(vib)   ...       0.03
freq.     958.24  E(vib)   ...       0.03
freq.    1036.80  E(vib)   ...       0.02
freq.    1037.90  E(vib)   ...       0.02
freq.    1147.85  E(vib)   ...       0.01
freq.    1260.75  E(vib)   ...       0.01
freq.    1261.24  E(vib)   ...       0.01
freq.    1376.70  E(vib)   ...       0.01
freq.    1377.88  E(vib)   ...       0.01
freq.    1391.25  E(vib)   ...       0.00
freq.    1425.92  E(vib)   ...       0.00
freq.    1436.70  E(vib)   ...       0.00
freq.    1437.35  E(vib)   ...       0.00
freq.    1449.54  E(vib)   ...       0.00
freq.    1450.17  E(vib)   ...       0.00
freq.    1464.97  E(vib)   ...       0.00
freq.    3047.19  E(vib)   ...       0.00
freq.    3047.26  E(vib)   ...       0.00
freq.    3052.06  E(vib)   ...       0.00
freq.    3142.66  E(vib)   ...       0.00
freq.    3143.10  E(vib)   ...       0.00
freq.    3146.00  E(vib)   ...       0.00
freq.    3166.66  E(vib)   ...       0.00
freq.    3170.01  E(vib)   ...       0.00
freq.    3171.61  E(vib)   ...       0.00

------------
INNER ENERGY
------------

The inner energy is: U= E(el) + E(ZPE) + E(vib) + E(rot) + E(trans)
    E(el)   - is the total energy from the electronic structure calculation
              = E(kin-el) + E(nuc-el) + E(el-el) + E(nuc-nuc)
    E(ZPE)  - the the zero temperature vibrational energy from the frequency calculation
    E(vib)  - the the finite temperature correction to E(ZPE) due to population
              of excited vibrational states
    E(rot)  - is the rotational thermal energy
    E(trans)- is the translational thermal energy

Summary of contributions to the inner energy U:
Electronic energy                ...  -5304.82491714 Eh
Zero point energy                ...      0.12163344 Eh      76.33 kcal/mol
Thermal vibrational correction   ...      0.00653080 Eh       4.10 kcal/mol
Thermal rotational correction    ...      0.00141627 Eh       0.89 kcal/mol
Thermal translational correction ...      0.00141627 Eh       0.89 kcal/mol
-----------------------------------------------------------------------
Total thermal energy                  -5304.69392035 Eh

Summary of corrections to the electronic energy:
(perhaps to be used in another calculation)
Total thermal correction                  0.00936335 Eh       5.88 kcal/mol
Non-thermal (ZPE) correction              0.12163344 Eh      76.33 kcal/mol
-----------------------------------------------------------------------
Total correction                          0.13099678 Eh      82.20 kcal/mol

--------
ENTHALPY
--------

The enthalpy is H = U + kB*T
                kB is Boltzmann's constant
Total free energy                 ...  -5304.69392035 Eh
Thermal Enthalpy correction       ...      0.00094421 Eh       0.59 kcal/mol
-----------------------------------------------------------------------
Total Enthalpy                    ...  -5304.69297614 Eh

Note: Only C1 symmetry has been detected, increase convergence thresholds
      if your molecule has a higher symmetry. Symmetry factor of 1.0 is
      used for the rotational entropy correction.

Note: Rotational entropy computed according to Herzberg
Infrared and Raman Spectra, Chapter V,1, Van Nostrand Reinhold, 1945
Point Group:  C1, Symmetry Number:   1
Rotational constants in cm-1:     0.148884     0.012654     0.012637

Vibrational entropy computed according to the QRRHO of S. Grimme
Chem.Eur.J. 2012 18 9955

-------
ENTROPY
-------

The entropy contributions are T*S = T*(S(el)+S(vib)+S(rot)+S(trans))
     S(el)   - electronic entropy
     S(vib)  - vibrational entropy
     S(rot)  - rotational entropy
     S(trans)- translational entropy
The entropies will be listed as mutliplied by the temperature to get
units of energy

Electronic entropy                ...      0.00000000 Eh      0.00 kcal/mol
Vibrational entropy               ...      0.01202008 Eh      7.54 kcal/mol
Rotational entropy                ...      0.01453642 Eh      9.12 kcal/mol
Translational entropy             ...      0.01996792 Eh     12.53 kcal/mol
-----------------------------------------------------------------------
Final entropy term                ...      0.04652442 Eh     29.19 kcal/mol

In case the symmetry of your molecule has not been determined correctly
or in case you have a reason to use a different symmetry number we print
out the resulting rotational entropy values for sn=1,12 :
 --------------------------------------------------------
|  sn= 1 | S(rot)=       0.01453642 Eh      9.12 kcal/mol|
|  sn= 2 | S(rot)=       0.01388197 Eh      8.71 kcal/mol|
|  sn= 3 | S(rot)=       0.01349913 Eh      8.47 kcal/mol|
|  sn= 4 | S(rot)=       0.01322751 Eh      8.30 kcal/mol|
|  sn= 5 | S(rot)=       0.01301682 Eh      8.17 kcal/mol|
|  sn= 6 | S(rot)=       0.01284468 Eh      8.06 kcal/mol|
|  sn= 7 | S(rot)=       0.01269913 Eh      7.97 kcal/mol|
|  sn= 8 | S(rot)=       0.01257305 Eh      7.89 kcal/mol|
|  sn= 9 | S(rot)=       0.01246184 Eh      7.82 kcal/mol|
|  sn=10 | S(rot)=       0.01236237 Eh      7.76 kcal/mol|
|  sn=11 | S(rot)=       0.01227238 Eh      7.70 kcal/mol|
|  sn=12 | S(rot)=       0.01219022 Eh      7.65 kcal/mol|
 --------------------------------------------------------

-------------------
GIBBS FREE ENERGY
-------------------

The Gibbs free energy is G = H - T*S

Total enthalpy                    ...  -5304.69297614 Eh
Total entropy correction          ...     -0.04652442 Eh    -29.19 kcal/mol
-----------------------------------------------------------------------

                             ****ORCA TERMINATED NORMALLY****
TOTAL RUN TIME: 0 days 0 hours 1 minutes 45 seconds 214 msec
