                         Program Version 4.2.1 -  RELEASE  -
|  1> ! Freq PBE0 RIJCOSX D3BJ def2-SVP def2/J CPCM(DMF)
|  2> %geom MaxIter 100 end
|  3> %output
|  4> xyzfile=True
|  5> end
|  6> %scf
|  7> maxiter 250
|  8> end
|  9> %output
| 10> Print[P_Hirshfeld] = 1
| 11> end
| 12> % maxcore
| 13> 4000
| 14> %pal nprocs 4
| 15> end
| 16> *xyz -1 1
| 17>   C   1.08703910089457     -0.61784529525553      1.12929323184767
| 18>   C   0.23916291012256     -0.59829919346874     -0.14774930609674
| 19>   C   1.14814828236460     -0.54186383417019     -1.37441447520342
| 20>   C   -0.62638661892706     -1.85681921693171     -0.19686196900493
| 21>   C   -0.61780478366297      0.66120317862737     -0.05148566580328
| 22>   Br  -1.77775488010328      0.97731595768148     -1.60620328159362
| 23>   H   0.46500088356725     -0.65796710296079      2.03657234548968
| 24>   H   1.74497031887200     -1.49876375691643      1.15895856709314
| 25>   H   1.73651928574639      0.26693841362250      1.21330950240572
| 26>   H   0.55915656626229     -0.55418852027227     -2.30436636246015
| 27>   H   1.82626187551327     -1.40933311524485     -1.38930099330721
| 28>   H   1.76379853918479      0.37226445750129     -1.37241139795702
| 29>   H   -1.26564730004883     -1.87014248399097     -1.09355967936359
| 30>   H   -1.27843056324233     -1.92829166041840      0.68882326567781
| 31>   H   0.01403904077846     -2.75282048476135     -0.22068989677533
| 32>   H   -1.30259173264883      0.62216239124371      0.80639722629980
| 33>   H   0.00472859222943      1.56275730820773      0.02447479812327
| 34>   Cl  3.18107048309771     -1.13791704249283      3.90307409062819
| 35> *
| 36>
| 37>                          ****END OF INPUT****

CARTESIAN COORDINATES (ANGSTROEM)
---------------------------------
  C      1.087039   -0.617845    1.129293
  C      0.239163   -0.598299   -0.147749
  C      1.148148   -0.541864   -1.374414
  C     -0.626387   -1.856819   -0.196862
  C     -0.617805    0.661203   -0.051486
  Br    -1.777755    0.977316   -1.606203
  H      0.465001   -0.657967    2.036572
  H      1.744970   -1.498764    1.158959
  H      1.736519    0.266938    1.213310
  H      0.559157   -0.554189   -2.304366
  H      1.826262   -1.409333   -1.389301
  H      1.763799    0.372264   -1.372411
  H     -1.265647   -1.870142   -1.093560
  H     -1.278431   -1.928292    0.688823
  H      0.014039   -2.752820   -0.220690
  H     -1.302592    0.622162    0.806397
  H      0.004729    1.562757    0.024475
  Cl     3.181070   -1.137917    3.903074

 Total Charge           Charge          ....   -1
 Multiplicity           Mult            ....    1
 Number of Electrons    NEL             ....   94
 Basis Dimension        Dim             ....  175

ORBITAL ENERGIES
----------------

  NO   OCC          E(Eh)            E(eV)
   0   2.0000    -483.176971    -13147.9138
   1   2.0000    -101.512324     -2762.2908
   2   2.0000     -62.613025     -1703.7870
   3   2.0000     -56.402196     -1534.7818
   4   2.0000     -56.399935     -1534.7203
   5   2.0000     -56.399863     -1534.7183
   6   2.0000     -10.277506      -279.6652
   7   2.0000     -10.246428      -278.8195
   8   2.0000     -10.217150      -278.0228
   9   2.0000     -10.216914      -278.0164
  10   2.0000     -10.213444      -277.9220
  11   2.0000      -9.359474      -254.6842
  12   2.0000      -8.758258      -238.3243
  13   2.0000      -7.095226      -193.0709
  14   2.0000      -7.095198      -193.0701
  15   2.0000      -7.095187      -193.0698
  16   2.0000      -6.572434      -178.8450
  17   2.0000      -6.560569      -178.5221
  18   2.0000      -6.560305      -178.5150
  19   2.0000      -2.657972       -72.3271
  20   2.0000      -2.654773       -72.2401
  21   2.0000      -2.654590       -72.2351
  22   2.0000      -2.644941       -71.9725
  23   2.0000      -2.644916       -71.9718
  24   2.0000      -0.856381       -23.3033
  25   2.0000      -0.790955       -21.5230
  26   2.0000      -0.693463       -18.8701
  27   2.0000      -0.692231       -18.8366
  28   2.0000      -0.667728       -18.1698
  29   2.0000      -0.662136       -18.0176
  30   2.0000      -0.542864       -14.7721
  31   2.0000      -0.472878       -12.8677
  32   2.0000      -0.467857       -12.7310
  33   2.0000      -0.450571       -12.2606
  34   2.0000      -0.417603       -11.3636
  35   2.0000      -0.404394       -11.0041
  36   2.0000      -0.378151       -10.2900
  37   2.0000      -0.366619        -9.9762
  38   2.0000      -0.364930        -9.9303
  39   2.0000      -0.347343        -9.4517
  40   2.0000      -0.334162        -9.0930
  41   2.0000      -0.329626        -8.9696
  42   2.0000      -0.285435        -7.7671
  43   2.0000      -0.284380        -7.7384
  44   2.0000      -0.207760        -5.6534
  45   2.0000      -0.207546        -5.6476
  46   2.0000      -0.205133        -5.5820
  47   0.0000       0.019481         0.5301
  48   0.0000       0.070233         1.9111
  49   0.0000       0.114665         3.1202
  50   0.0000       0.117505         3.1975
  51   0.0000       0.130769         3.5584

MULLIKEN ATOMIC CHARGES
-----------------------
   0 C :    0.016679
   1 C :   -0.384827
   2 C :   -0.008493
   3 C :   -0.007116
   4 C :   -0.022893
   5 Br:   -0.193976
   6 H :    0.026757
   7 H :    0.025921
   8 H :    0.027818
   9 H :    0.040958
  10 H :    0.048174
  11 H :    0.043659
  12 H :    0.042205
  13 H :    0.043866
  14 H :    0.045778
  15 H :    0.100128
  16 H :    0.100764
  17 Cl:   -0.945404
Sum of atomic charges:   -1.0000000

LOEWDIN ATOMIC CHARGES
----------------------
   0 C :   -0.055959
   1 C :   -0.092169
   2 C :   -0.061936
   3 C :   -0.060916
   4 C :   -0.064965
   5 Br:   -0.024583
   6 H :    0.022973
   7 H :    0.022268
   8 H :    0.023113
   9 H :    0.020851
  10 H :    0.031666
  11 H :    0.029628
  12 H :    0.021810
  13 H :    0.029517
  14 H :    0.031751
  15 H :    0.038727
  16 H :    0.038869
  17 Cl:   -0.950644

  Mayer bond orders larger than 0.100000
B(  0-C ,  1-C ) :   1.0015 B(  0-C ,  6-H ) :   0.9663 B(  0-C ,  7-H ) :   0.9602
B(  0-C ,  8-H ) :   0.9660 B(  1-C ,  2-C ) :   1.0169 B(  1-C ,  3-C ) :   1.0180
B(  1-C ,  4-C ) :   0.9904 B(  2-C ,  9-H ) :   0.9619 B(  2-C , 10-H ) :   0.9690
B(  2-C , 11-H ) :   0.9679 B(  3-C , 12-H ) :   0.9629 B(  3-C , 13-H ) :   0.9669
B(  3-C , 14-H ) :   0.9694 B(  4-C ,  5-Br) :   0.9767 B(  4-C , 15-H ) :   0.9478
B(  4-C , 16-H ) :   0.9472

Dispersion correction           -0.015470614
FINAL SINGLE POINT ENERGY     -3230.402741410282

DIPOLE MOMENT
-------------
                                X             Y             Z
Electronic contribution:    -21.45586      16.69872     -15.54043
Nuclear contribution   :     16.22398     -14.91859       9.25411
                        -----------------------------------------
Total Dipole Moment    :     -5.23188       1.78013      -6.28632
                        -----------------------------------------
Magnitude (a.u.)       :      8.37014
Magnitude (Debye)      :     21.27521

Dispersion correction in the Hessian             ... done   (      0.9 sec)

VIBRATIONAL FREQUENCIES
-----------------------

Scaling factor for frequencies =  1.000000000  (already applied!)

   0:         0.00 cm**-1
   1:         0.00 cm**-1
   2:         0.00 cm**-1
   3:         0.00 cm**-1
   4:         0.00 cm**-1
   5:         0.00 cm**-1
   6:       -50.78 cm**-1 ***imaginary mode***
   7:       -48.55 cm**-1 ***imaginary mode***
   8:        78.76 cm**-1
   9:       107.08 cm**-1
  10:       178.71 cm**-1
  11:       221.67 cm**-1
  12:       263.52 cm**-1
  13:       266.66 cm**-1
  14:       286.36 cm**-1
  15:       329.06 cm**-1
  16:       385.90 cm**-1
  17:       404.64 cm**-1
  18:       451.32 cm**-1
  19:       658.40 cm**-1
  20:       766.33 cm**-1
  21:       857.12 cm**-1
  22:       918.62 cm**-1
  23:       935.28 cm**-1
  24:       939.23 cm**-1
  25:       948.23 cm**-1
  26:      1024.20 cm**-1
  27:      1026.90 cm**-1
  28:      1125.05 cm**-1
  29:      1203.15 cm**-1
  30:      1271.71 cm**-1
  31:      1280.84 cm**-1
  32:      1292.47 cm**-1
  33:      1350.80 cm**-1
  34:      1373.02 cm**-1
  35:      1384.45 cm**-1
  36:      1424.56 cm**-1
  37:      1432.38 cm**-1
  38:      1433.98 cm**-1
  39:      1439.55 cm**-1
  40:      1453.23 cm**-1
  41:      1458.32 cm**-1
  42:      1469.77 cm**-1
  43:      3041.34 cm**-1
  44:      3045.29 cm**-1
  45:      3058.00 cm**-1
  46:      3108.82 cm**-1
  47:      3137.86 cm**-1
  48:      3140.14 cm**-1
  49:      3144.38 cm**-1
  50:      3148.23 cm**-1
  51:      3148.96 cm**-1
  52:      3155.94 cm**-1
  53:      3188.77 cm**-1

IR SPECTRUM
-----------

 Mode    freq (cm**-1)   T**2         TX         TY         TZ
-------------------------------------------------------------------
   8:        78.76   32.406903  (  3.399687  -0.752648   4.503616)
   9:       107.08    1.477168  ( -0.862800  -0.728205   0.449957)
  10:       178.71    1.976473  (  0.974273  -0.883573   0.496551)
  11:       221.67    0.090908  ( -0.255152  -0.140521   0.077842)
  12:       263.52    0.914736  ( -0.295776  -0.023720  -0.909225)
  13:       266.66    0.493341  ( -0.693898  -0.106541   0.022252)
  14:       286.36    1.981089  ( -0.938398   0.466046  -0.939840)
  15:       329.06    0.252563  (  0.368502   0.253352  -0.229307)
  16:       385.90    0.622229  (  0.363554   0.138463   0.686211)
  17:       404.64    0.770687  (  0.668422   0.400896  -0.403957)
  18:       451.32    7.145770  (  1.706401  -0.745182   1.917986)
  19:       658.40   54.658944  ( -4.732741   2.272654  -5.205300)
  20:       766.33    3.986698  ( -1.370229   1.150171  -0.886723)
  21:       857.12    3.192273  ( -1.403163  -0.865362   0.688879)
  22:       918.62   30.969664  ( -3.753529   3.730499  -1.721645)
  23:       935.28    9.670343  ( -1.724796   0.250768  -2.575371)
  24:       939.23    2.000703  ( -0.893576  -0.754378   0.795701)
  25:       948.23    1.157425  ( -1.002442  -0.342150   0.188329)
  26:      1024.20    0.952511  ( -0.550924  -0.025975  -0.805183)
  27:      1026.90    0.122765  ( -0.021826  -0.157723   0.312109)
  28:      1125.05    2.604530  (  1.115005   0.866510  -0.781316)
  29:      1203.15   25.301053  ( -3.177850   1.097798  -3.741278)
  30:      1271.71   39.813889  (  3.917528  -1.604322   4.678997)
  31:      1280.84   10.499334  ( -1.298811   2.645219   1.347309)
  32:      1292.47    1.962275  (  0.923485   0.911483  -0.527872)
  33:      1350.80   21.500235  (  2.114516   0.701513   4.066563)
  34:      1373.02   19.645478  (  3.198634   2.326212  -2.000739)
  35:      1384.45   19.245642  (  2.225146  -3.713218  -0.711605)
  36:      1424.56    6.926656  (  1.458767  -2.190099  -0.046056)
  37:      1432.38    0.123017  ( -0.230862  -0.131337   0.229065)
  38:      1433.98    0.019721  (  0.097284  -0.076742   0.066087)
  39:      1439.55    0.214858  ( -0.372441  -0.129121   0.243870)
  40:      1453.23    4.076771  ( -1.346616  -1.234208   0.860307)
  41:      1458.32   19.959435  ( -1.122798  -1.962805  -3.853071)
  42:      1469.77   19.496586  (  2.963483  -3.239448   0.469392)
  43:      3041.34   41.981082  ( -4.374450  -4.300969   2.084931)
  44:      3045.29   19.222919  ( -1.805329   1.696063   3.617607)
  45:      3058.00   22.196634  (  2.661113   0.028582   3.887711)
  46:      3108.82   15.126922  ( -0.711162  -1.955328  -3.286010)
  47:      3137.86   27.523468  (  3.206008  -1.699208  -3.789152)
  48:      3140.14   29.445335  ( -1.196331  -5.105541  -1.395556)
  49:      3144.38   16.998088  ( -1.457227   2.144701  -3.205438)
  50:      3148.23   36.881952  (  5.923231   1.315040  -0.260682)
  51:      3148.96   31.094359  ( -1.776531   3.177799  -4.223730)
  52:      3155.94   26.252994  (  1.542656  -4.300546  -2.319161)
  53:      3188.77    4.319522  (  1.490484   1.090414  -0.953403)

--------------------------
THERMOCHEMISTRY AT 298.15K
--------------------------

Temperature         ... 298.15 K
Pressure            ... 1.00 atm
Total Mass          ... 186.50 AMU

Throughout the following assumptions are being made:
  (1) The electronic state is orbitally nondegenerate
  (2) There are no thermally accessible electronically excited states
  (3) Hindered rotations indicated by low frequency modes are not
      treated as such but are treated as vibrations and this may
      cause some error
  (4) All equations used are the standard statistical mechanics
      equations for an ideal gas
  (5) All vibrations are strictly harmonic

freq.      78.76  E(vib)   ...       0.49
freq.     107.08  E(vib)   ...       0.45
freq.     178.71  E(vib)   ...       0.37
freq.     221.67  E(vib)   ...       0.33
freq.     263.52  E(vib)   ...       0.29
freq.     266.66  E(vib)   ...       0.29
freq.     286.36  E(vib)   ...       0.27
freq.     329.06  E(vib)   ...       0.24
freq.     385.90  E(vib)   ...       0.20
freq.     404.64  E(vib)   ...       0.19
freq.     451.32  E(vib)   ...       0.16
freq.     658.40  E(vib)   ...       0.08
freq.     766.33  E(vib)   ...       0.06
freq.     857.12  E(vib)   ...       0.04
freq.     918.62  E(vib)   ...       0.03
freq.     935.28  E(vib)   ...       0.03
freq.     939.23  E(vib)   ...       0.03
freq.     948.23  E(vib)   ...       0.03
freq.    1024.20  E(vib)   ...       0.02
freq.    1026.90  E(vib)   ...       0.02
freq.    1125.05  E(vib)   ...       0.01
freq.    1203.15  E(vib)   ...       0.01
freq.    1271.71  E(vib)   ...       0.01
freq.    1280.84  E(vib)   ...       0.01
freq.    1292.47  E(vib)   ...       0.01
freq.    1350.80  E(vib)   ...       0.01
freq.    1373.02  E(vib)   ...       0.01
freq.    1384.45  E(vib)   ...       0.00
freq.    1424.56  E(vib)   ...       0.00
freq.    1432.38  E(vib)   ...       0.00
freq.    1433.98  E(vib)   ...       0.00
freq.    1439.55  E(vib)   ...       0.00
freq.    1453.23  E(vib)   ...       0.00
freq.    1458.32  E(vib)   ...       0.00
freq.    1469.77  E(vib)   ...       0.00
freq.    3041.34  E(vib)   ...       0.00
freq.    3045.29  E(vib)   ...       0.00
freq.    3058.00  E(vib)   ...       0.00
freq.    3108.82  E(vib)   ...       0.00
freq.    3137.86  E(vib)   ...       0.00
freq.    3140.14  E(vib)   ...       0.00
freq.    3144.38  E(vib)   ...       0.00
freq.    3148.23  E(vib)   ...       0.00
freq.    3148.96  E(vib)   ...       0.00
freq.    3155.94  E(vib)   ...       0.00
freq.    3188.77  E(vib)   ...       0.00

------------
INNER ENERGY
------------

The inner energy is: U= E(el) + E(ZPE) + E(vib) + E(rot) + E(trans)
    E(el)   - is the total energy from the electronic structure calculation
              = E(kin-el) + E(nuc-el) + E(el-el) + E(nuc-nuc)
    E(ZPE)  - the the zero temperature vibrational energy from the frequency calculation
    E(vib)  - the the finite temperature correction to E(ZPE) due to population
              of excited vibrational states
    E(rot)  - is the rotational thermal energy
    E(trans)- is the translational thermal energy

Summary of contributions to the inner energy U:
Electronic energy                ...  -3230.40274141 Eh
Zero point energy                ...      0.14980998 Eh      94.01 kcal/mol
Thermal vibrational correction   ...      0.00594720 Eh       3.73 kcal/mol
Thermal rotational correction    ...      0.00141627 Eh       0.89 kcal/mol
Thermal translational correction ...      0.00141627 Eh       0.89 kcal/mol
-----------------------------------------------------------------------
Total thermal energy                  -3230.24415168 Eh

Summary of corrections to the electronic energy:
(perhaps to be used in another calculation)
Total thermal correction                  0.00877975 Eh       5.51 kcal/mol
Non-thermal (ZPE) correction              0.14980998 Eh      94.01 kcal/mol
-----------------------------------------------------------------------
Total correction                          0.15858973 Eh      99.52 kcal/mol

--------
ENTHALPY
--------

The enthalpy is H = U + kB*T
                kB is Boltzmann's constant
Total free energy                 ...  -3230.24415168 Eh
Thermal Enthalpy correction       ...      0.00094421 Eh       0.59 kcal/mol
-----------------------------------------------------------------------
Total Enthalpy                    ...  -3230.24320747 Eh

Note: Only C1 symmetry has been detected, increase convergence thresholds
      if your molecule has a higher symmetry. Symmetry factor of 1.0 is
      used for the rotational entropy correction.

Note: Rotational entropy computed according to Herzberg
Infrared and Raman Spectra, Chapter V,1, Van Nostrand Reinhold, 1945
Point Group:  C1, Symmetry Number:   1
Rotational constants in cm-1:     0.107018     0.010698     0.010408

Vibrational entropy computed according to the QRRHO of S. Grimme
Chem.Eur.J. 2012 18 9955

-------
ENTROPY
-------

The entropy contributions are T*S = T*(S(el)+S(vib)+S(rot)+S(trans))
     S(el)   - electronic entropy
     S(vib)  - vibrational entropy
     S(rot)  - rotational entropy
     S(trans)- translational entropy
The entropies will be listed as mutliplied by the temperature to get
units of energy

Electronic entropy                ...      0.00000000 Eh      0.00 kcal/mol
Vibrational entropy               ...      0.01010219 Eh      6.34 kcal/mol
Rotational entropy                ...      0.01486322 Eh      9.33 kcal/mol
Translational entropy             ...      0.01975392 Eh     12.40 kcal/mol
-----------------------------------------------------------------------
Final entropy term                ...      0.04471933 Eh     28.06 kcal/mol

In case the symmetry of your molecule has not been determined correctly
or in case you have a reason to use a different symmetry number we print
out the resulting rotational entropy values for sn=1,12 :
 --------------------------------------------------------
|  sn= 1 | S(rot)=       0.01486322 Eh      9.33 kcal/mol|
|  sn= 2 | S(rot)=       0.01420877 Eh      8.92 kcal/mol|
|  sn= 3 | S(rot)=       0.01382593 Eh      8.68 kcal/mol|
|  sn= 4 | S(rot)=       0.01355431 Eh      8.51 kcal/mol|
|  sn= 5 | S(rot)=       0.01334362 Eh      8.37 kcal/mol|
|  sn= 6 | S(rot)=       0.01317148 Eh      8.27 kcal/mol|
|  sn= 7 | S(rot)=       0.01302593 Eh      8.17 kcal/mol|
|  sn= 8 | S(rot)=       0.01289985 Eh      8.09 kcal/mol|
|  sn= 9 | S(rot)=       0.01278865 Eh      8.02 kcal/mol|
|  sn=10 | S(rot)=       0.01268917 Eh      7.96 kcal/mol|
|  sn=11 | S(rot)=       0.01259918 Eh      7.91 kcal/mol|
|  sn=12 | S(rot)=       0.01251702 Eh      7.85 kcal/mol|
 --------------------------------------------------------

-------------------
GIBBS FREE ENERGY

                             ****ORCA TERMINATED NORMALLY****
TOTAL RUN TIME: 0 days 0 hours 2 minutes 17 seconds 193 msec
