                         Program Version 4.2.1 -  RELEASE  -
|  1> ! Freq PBE0 RIJCOSX D3BJ def2-SVP def2/J CPCM(Acetone)
|  2> %geom MaxIter 100 end
|  3> %output
|  4> xyzfile=True
|  5> end
|  6> %scf
|  7> maxiter 250
|  8> end
|  9> %output
| 10> Print[P_Hirshfeld] = 1
| 11> end
| 12> % maxcore
| 13> 4000
| 14> %pal nprocs 4
| 15> end
| 16> *xyz -1 1
| 17>   C   1.40420650661284     -0.44746594895112     -0.70835690274319
| 18>   C   0.03845186361816     -0.17339749570810     -0.12768038651962
| 19>   C   -0.70555536336300     -1.41535539685369      0.29867827417430
| 20>   Br  -1.04966485865660      0.85378556413255     -1.45298635230071
| 21>   H   1.90703891189243      0.47740003217115     -1.02561305937239
| 22>   H   1.33652356518682     -1.12596196662642     -1.57311241983143
| 23>   H   1.99299789639203     -0.93759628183692      0.08977867747395
| 24>   H   0.10683344954809      0.53498215344063      0.70942792765054
| 25>   H   -1.67860383207555     -1.17368335750122      0.75122538531939
| 26>   H   -0.06971231827735     -1.91679458422128      1.05134815140855
| 27>   H   -0.86626917254884     -2.09711454989401     -0.55061080354824
| 28>   Cl  2.24530335167097     -2.03496816815156      2.38240150828885
| 29> *
| 30>
| 31>                          ****END OF INPUT****

CARTESIAN COORDINATES (ANGSTROEM)
---------------------------------
  C      1.404207   -0.447466   -0.708357
  C      0.038452   -0.173397   -0.127680
  C     -0.705555   -1.415355    0.298678
  Br    -1.049665    0.853786   -1.452986
  H      1.907039    0.477400   -1.025613
  H      1.336524   -1.125962   -1.573112
  H      1.992998   -0.937596    0.089779
  H      0.106833    0.534982    0.709428
  H     -1.678604   -1.173683    0.751225
  H     -0.069712   -1.916795    1.051348
  H     -0.866269   -2.097115   -0.550611
  Cl     2.245303   -2.034968    2.382402

 Total Charge           Charge          ....   -1
 Multiplicity           Mult            ....    1
 Number of Electrons    NEL             ....   78
 Basis Dimension        Dim             ....  127

ORBITAL ENERGIES
----------------

  NO   OCC          E(Eh)            E(eV)
   0   2.0000    -483.165231    -13147.5944
   1   2.0000    -101.520916     -2762.5246
   2   2.0000     -62.601505     -1703.4735
   3   2.0000     -56.390575     -1534.4656
   4   2.0000     -56.388514     -1534.4095
   5   2.0000     -56.388340     -1534.4048
   6   2.0000     -10.280827      -279.7555
   7   2.0000     -10.215494      -277.9777
   8   2.0000     -10.213032      -277.9107
   9   2.0000      -9.368000      -254.9162
  10   2.0000      -8.746698      -238.0098
  11   2.0000      -7.103816      -193.3047
  12   2.0000      -7.103747      -193.3028
  13   2.0000      -7.103488      -193.2957
  14   2.0000      -6.560345      -178.5161
  15   2.0000      -6.549185      -178.2124
  16   2.0000      -6.549133      -178.2110
  17   2.0000      -2.646031       -72.0022
  18   2.0000      -2.642946       -71.9182
  19   2.0000      -2.642829       -71.9150
  20   2.0000      -2.633832       -71.6702
  21   2.0000      -2.633807       -71.6695
  22   2.0000      -0.833902       -22.6916
  23   2.0000      -0.739230       -20.1155
  24   2.0000      -0.691026       -18.8038
  25   2.0000      -0.670005       -18.2318
  26   2.0000      -0.573705       -15.6113
  27   2.0000      -0.466328       -12.6894
  28   2.0000      -0.446991       -12.1633
  29   2.0000      -0.416450       -11.3322
  30   2.0000      -0.385193       -10.4816
  31   2.0000      -0.356229        -9.6935
  32   2.0000      -0.355819        -9.6823
  33   2.0000      -0.330834        -9.0024
  34   2.0000      -0.279113        -7.5950
  35   2.0000      -0.278924        -7.5899
  36   2.0000      -0.212659        -5.7867
  37   2.0000      -0.212147        -5.7728
  38   2.0000      -0.209151        -5.6913
  39   0.0000       0.019017         0.5175
  40   0.0000       0.100484         2.7343
  41   0.0000       0.125921         3.4265
  42   0.0000       0.135069         3.6754
  43   0.0000       0.155335         4.2269

MULLIKEN ATOMIC CHARGES
-----------------------
   0 C :   -0.033796
   1 C :   -0.233691
   2 C :   -0.027460
   3 Br:   -0.223104
   4 H :    0.049678
   5 H :    0.047561
   6 H :    0.029876
   7 H :    0.100185
   8 H :    0.050241
   9 H :    0.029243
  10 H :    0.050681
  11 Cl:   -0.839412
Sum of atomic charges:   -1.0000000

LOEWDIN ATOMIC CHARGES
----------------------
   0 C :   -0.093505
   1 C :   -0.065537
   2 C :   -0.089511
   3 Br:   -0.075597
   4 H :    0.028889
   5 H :    0.029336
   6 H :    0.012275
   7 H :    0.037322
   8 H :    0.030290
   9 H :    0.016769
  10 H :    0.030448
  11 Cl:   -0.861180

  Mayer bond orders larger than 0.100000
B(  0-C ,  1-C ) :   1.0488 B(  0-C ,  4-H ) :   0.9624 B(  0-C ,  5-H ) :   0.9645
B(  0-C ,  6-H ) :   0.9079 B(  1-C ,  2-C ) :   1.0475 B(  1-C ,  3-Br) :   0.9504
B(  1-C ,  7-H ) :   0.9323 B(  2-C ,  8-H ) :   0.9629 B(  2-C ,  9-H ) :   0.9168
B(  2-C , 10-H ) :   0.9637 B(  6-H , 11-Cl) :   0.1758 B(  9-H , 11-Cl) :   0.1549

Dispersion correction           -0.009137392
FINAL SINGLE POINT ENERGY     -3151.927376063491

DIPOLE MOMENT
-------------
                                X             Y             Z
Electronic contribution:    -12.57299      14.44773     -12.42469
Nuclear contribution   :      9.48063     -11.93762       8.78957
                        -----------------------------------------
Total Dipole Moment    :     -3.09237       2.51012      -3.63512
                        -----------------------------------------
Magnitude (a.u.)       :      5.39236
Magnitude (Debye)      :     13.70629

Dispersion correction in the Hessian             ... done   (      0.5 sec)

VIBRATIONAL FREQUENCIES
-----------------------

Scaling factor for frequencies =  1.000000000  (already applied!)

   0:         0.00 cm**-1
   1:         0.00 cm**-1
   2:         0.00 cm**-1
   3:         0.00 cm**-1
   4:         0.00 cm**-1
   5:         0.00 cm**-1
   6:       -27.24 cm**-1 ***imaginary mode***
   7:        79.99 cm**-1
   8:       105.54 cm**-1
   9:       281.12 cm**-1
  10:       288.41 cm**-1
  11:       307.64 cm**-1
  12:       333.10 cm**-1
  13:       406.85 cm**-1
  14:       533.31 cm**-1
  15:       907.53 cm**-1
  16:       937.29 cm**-1
  17:       963.28 cm**-1
  18:      1052.98 cm**-1
  19:      1160.34 cm**-1
  20:      1170.76 cm**-1
  21:      1224.59 cm**-1
  22:      1337.23 cm**-1
  23:      1385.07 cm**-1
  24:      1387.33 cm**-1
  25:      1434.95 cm**-1
  26:      1454.14 cm**-1
  27:      1457.54 cm**-1
  28:      1464.51 cm**-1
  29:      3009.73 cm**-1
  30:      3020.02 cm**-1
  31:      3123.97 cm**-1
  32:      3128.24 cm**-1
  33:      3137.12 cm**-1
  34:      3159.50 cm**-1
  35:      3163.00 cm**-1

IR SPECTRUM
-----------

 Mode    freq (cm**-1)   T**2         TX         TY         TZ
-------------------------------------------------------------------
   7:        79.99   14.193059  ( -3.670519  -0.827552  -0.188425)
   8:       105.54   32.150510  (  2.116728  -1.977033   4.874558)
   9:       281.12   23.549394  (  2.647996  -2.711226   3.030968)
  10:       288.41    5.161340  ( -1.438389   1.165693  -1.316639)
  11:       307.64    0.227447  ( -0.468905  -0.029648  -0.081831)
  12:       333.10    8.722169  (  1.604167  -1.070735   2.236592)
  13:       406.85    1.482824  ( -0.594963   0.866887  -0.614289)
  14:       533.31   29.957544  ( -2.858150   3.813691  -2.691520)
  15:       907.53   36.257946  (  3.429905  -3.078853   3.874837)
  16:       937.29    2.618177  ( -1.182591  -0.757654   0.803503)
  17:       963.28    0.346770  (  0.178752   0.334895  -0.450182)
  18:      1052.98   69.423869  (  4.832306  -4.332802   5.224893)
  19:      1160.34    2.900185  ( -1.000738  -1.008787   0.938647)
  20:      1170.76  130.976823  ( -6.472679   6.813492  -6.531276)
  21:      1224.59   59.272552  ( -4.207875   3.846904  -5.173748)
  22:      1337.23    0.908490  (  0.814200   0.415934  -0.269385)
  23:      1385.07   19.015195  ( -3.543900  -1.664834  -1.919451)
  24:      1387.33   24.544119  (  2.899238   1.527772  -3.715434)
  25:      1434.95    0.046827  ( -0.146990   0.150430  -0.050908)
  26:      1454.14    2.471474  ( -1.181219  -0.376732   0.966575)
  27:      1457.54    0.710739  ( -0.673262   0.488379   0.137631)
  28:      1464.51   10.846762  (  0.164560  -2.794570  -1.734953)
  29:      3009.73   73.382893  (  1.079337   3.435816  -7.772586)
  30:      3020.02   57.053148  ( -6.298698  -0.689088  -4.111534)
  31:      3123.97   25.192154  (  3.473704  -3.042378   1.967096)
  32:      3128.24   12.032511  ( -0.779256   2.513946  -2.259501)
  33:      3137.12    4.462161  (  0.838021  -1.917807   0.286177)
  34:      3159.50   13.987967  ( -3.286496  -0.938723   1.518457)
  35:      3163.00   37.467323  ( -0.166924  -4.616758  -4.015595)

--------------------------
THERMOCHEMISTRY AT 298.15K
--------------------------

Temperature         ... 298.15 K
Pressure            ... 1.00 atm
Total Mass          ... 158.44 AMU

Throughout the following assumptions are being made:
  (1) The electronic state is orbitally nondegenerate
  (2) There are no thermally accessible electronically excited states
  (3) Hindered rotations indicated by low frequency modes are not
      treated as such but are treated as vibrations and this may
      cause some error
  (4) All equations used are the standard statistical mechanics
      equations for an ideal gas
  (5) All vibrations are strictly harmonic

freq.      79.99  E(vib)   ...       0.49
freq.     105.54  E(vib)   ...       0.45
freq.     281.12  E(vib)   ...       0.28
freq.     288.41  E(vib)   ...       0.27
freq.     307.64  E(vib)   ...       0.26
freq.     333.10  E(vib)   ...       0.24
freq.     406.85  E(vib)   ...       0.19
freq.     533.31  E(vib)   ...       0.13
freq.     907.53  E(vib)   ...       0.03
freq.     937.29  E(vib)   ...       0.03
freq.     963.28  E(vib)   ...       0.03
freq.    1052.98  E(vib)   ...       0.02
freq.    1160.34  E(vib)   ...       0.01
freq.    1170.76  E(vib)   ...       0.01
freq.    1224.59  E(vib)   ...       0.01
freq.    1337.23  E(vib)   ...       0.01
freq.    1385.07  E(vib)   ...       0.00
freq.    1387.33  E(vib)   ...       0.00
freq.    1434.95  E(vib)   ...       0.00
freq.    1454.14  E(vib)   ...       0.00
freq.    1457.54  E(vib)   ...       0.00
freq.    1464.51  E(vib)   ...       0.00
freq.    3009.73  E(vib)   ...       0.00
freq.    3020.02  E(vib)   ...       0.00
freq.    3123.97  E(vib)   ...       0.00
freq.    3128.24  E(vib)   ...       0.00
freq.    3137.12  E(vib)   ...       0.00
freq.    3159.50  E(vib)   ...       0.00
freq.    3163.00  E(vib)   ...       0.00

------------
INNER ENERGY
------------

The inner energy is: U= E(el) + E(ZPE) + E(vib) + E(rot) + E(trans)
    E(el)   - is the total energy from the electronic structure calculation
              = E(kin-el) + E(nuc-el) + E(el-el) + E(nuc-nuc)
    E(ZPE)  - the the zero temperature vibrational energy from the frequency calculation
    E(vib)  - the the finite temperature correction to E(ZPE) due to population
              of excited vibrational states
    E(rot)  - is the rotational thermal energy
    E(trans)- is the translational thermal energy

Summary of contributions to the inner energy U:
Electronic energy                ...  -3151.92737606 Eh
Zero point energy                ...      0.09435049 Eh      59.21 kcal/mol
Thermal vibrational correction   ...      0.00394622 Eh       2.48 kcal/mol
Thermal rotational correction    ...      0.00141627 Eh       0.89 kcal/mol
Thermal translational correction ...      0.00141627 Eh       0.89 kcal/mol
-----------------------------------------------------------------------
Total thermal energy                  -3151.82624681 Eh

Summary of corrections to the electronic energy:
(perhaps to be used in another calculation)
Total thermal correction                  0.00677876 Eh       4.25 kcal/mol
Non-thermal (ZPE) correction              0.09435049 Eh      59.21 kcal/mol
-----------------------------------------------------------------------
Total correction                          0.10112925 Eh      63.46 kcal/mol

--------
ENTHALPY
--------

The enthalpy is H = U + kB*T
                kB is Boltzmann's constant
Total free energy                 ...  -3151.82624681 Eh
Thermal Enthalpy correction       ...      0.00094421 Eh       0.59 kcal/mol
-----------------------------------------------------------------------
Total Enthalpy                    ...  -3151.82530261 Eh

Note: Only C1 symmetry has been detected, increase convergence thresholds
      if your molecule has a higher symmetry. Symmetry factor of 1.0 is
      used for the rotational entropy correction.

Note: Rotational entropy computed according to Herzberg
Infrared and Raman Spectra, Chapter V,1, Van Nostrand Reinhold, 1945
Point Group:  C1, Symmetry Number:   1
Rotational constants in cm-1:     0.238877     0.019489     0.018658

Vibrational entropy computed according to the QRRHO of S. Grimme
Chem.Eur.J. 2012 18 9955

-------
ENTROPY
-------

The entropy contributions are T*S = T*(S(el)+S(vib)+S(rot)+S(trans))
     S(el)   - electronic entropy
     S(vib)  - vibrational entropy
     S(rot)  - rotational entropy
     S(trans)- translational entropy
The entropies will be listed as mutliplied by the temperature to get
units of energy

Electronic entropy                ...      0.00000000 Eh      0.00 kcal/mol
Vibrational entropy               ...      0.00678377 Eh      4.26 kcal/mol
Rotational entropy                ...      0.01392542 Eh      8.74 kcal/mol
Translational entropy             ...      0.01952304 Eh     12.25 kcal/mol
-----------------------------------------------------------------------
Final entropy term                ...      0.04023223 Eh     25.25 kcal/mol

In case the symmetry of your molecule has not been determined correctly
or in case you have a reason to use a different symmetry number we print
out the resulting rotational entropy values for sn=1,12 :
 --------------------------------------------------------
|  sn= 1 | S(rot)=       0.01392542 Eh      8.74 kcal/mol|
|  sn= 2 | S(rot)=       0.01327096 Eh      8.33 kcal/mol|
|  sn= 3 | S(rot)=       0.01288813 Eh      8.09 kcal/mol|
|  sn= 4 | S(rot)=       0.01261651 Eh      7.92 kcal/mol|
|  sn= 5 | S(rot)=       0.01240582 Eh      7.78 kcal/mol|
|  sn= 6 | S(rot)=       0.01223368 Eh      7.68 kcal/mol|
|  sn= 7 | S(rot)=       0.01208813 Eh      7.59 kcal/mol|
|  sn= 8 | S(rot)=       0.01196205 Eh      7.51 kcal/mol|
|  sn= 9 | S(rot)=       0.01185084 Eh      7.44 kcal/mol|
|  sn=10 | S(rot)=       0.01175136 Eh      7.37 kcal/mol|
|  sn=11 | S(rot)=       0.01166137 Eh      7.32 kcal/mol|
|  sn=12 | S(rot)=       0.01157922 Eh      7.27 kcal/mol|
 --------------------------------------------------------

-------------------
GIBBS FREE ENERGY
-------------------

The Gibbs free energy is G = H - T*S

Total enthalpy                    ...  -3151.82530261 Eh
Total entropy correction          ...     -0.04023223 Eh    -25.25 kcal/mol
-----------------------------------------------------------------------
Final Gibbs free energy         ...  -3151.86553484 Eh

For completeness - the Gibbs free energy minus the electronic energy
G-E(el)                           ...      0.06184123 Eh     38.81 kcal/mol

                             ****ORCA TERMINATED NORMALLY****
TOTAL RUN TIME: 0 days 0 hours 0 minutes 48 seconds 70 msec
