                         Program Version 4.2.1 -  RELEASE  -
|  1> ! Freq PBE0 RIJCOSX D3BJ def2-SVP def2/J CPCM(DMF)
|  2> %geom MaxIter 100 end
|  3> %output
|  4> xyzfile=True
|  5> end
|  6> %scf
|  7> maxiter 250
|  8> end
|  9> %output
| 10> Print[P_Hirshfeld] = 1
| 11> end
| 12> % maxcore
| 13> 4000
| 14> %pal nprocs 4
| 15> end
| 16> *xyz -1 1
| 17>   C   -0.05543222422965     -1.06890138008958      1.02389465376885
| 18>   C   0.62917946061395     -0.45398884179057     -0.19087510498457
| 19>   C   1.43524234469715      0.78051261614000      0.19474917369501
| 20>   C   -0.29978728776592     -0.23845529029786     -1.36840351901004
| 21>   Br  -1.80658640449709      0.97235637542428     -0.98232754748740
| 22>   H   0.72720397507228     -1.41840868363841      1.71520443910096
| 23>   H   -0.69536041203735     -0.32971351059636      1.53321465903038
| 24>   H   -0.68737483476443     -1.92629897901319      0.74189928870881
| 25>   H   1.35818821998424     -1.20304779923236     -0.55557445799467
| 26>   H   1.92763419837458      1.23667938008889     -0.68007916555388
| 27>   H   0.79622713804767      1.54586217726889      0.66435200175038
| 28>   H   2.21104094083607      0.46902984933777      0.91069566241496
| 29>   H   0.21292819749066      0.22633703217323     -2.22104947992072
| 30>   H   -0.77781794359335     -1.17141559852099     -1.69344615225637
| 31>   Cl  3.32274463177119     -1.88723734725373      1.82746554873829
| 32> *
| 33>
| 34>                          ****END OF INPUT****

CARTESIAN COORDINATES (ANGSTROEM)
---------------------------------
  C     -0.055432   -1.068901    1.023895
  C      0.629179   -0.453989   -0.190875
  C      1.435242    0.780513    0.194749
  C     -0.299787   -0.238455   -1.368404
  Br    -1.806586    0.972356   -0.982328
  H      0.727204   -1.418409    1.715204
  H     -0.695360   -0.329714    1.533215
  H     -0.687375   -1.926299    0.741899
  H      1.358188   -1.203048   -0.555574
  H      1.927634    1.236679   -0.680079
  H      0.796227    1.545862    0.664352
  H      2.211041    0.469030    0.910696
  H      0.212928    0.226337   -2.221049
  H     -0.777818   -1.171416   -1.693446
  Cl     3.322745   -1.887237    1.827466

 Total Charge           Charge          ....   -1
 Multiplicity           Mult            ....    1
 Number of Electrons    NEL             ....   86
 Basis Dimension        Dim             ....  151

ORBITAL ENERGIES
----------------

  NO   OCC          E(Eh)            E(eV)
   0   2.0000    -483.173309    -13147.8142
   1   2.0000    -101.523215     -2762.5871
   2   2.0000     -62.609436     -1703.6894
   3   2.0000     -56.398530     -1534.6820
   4   2.0000     -56.396363     -1534.6231
   5   2.0000     -56.396307     -1534.6215
   6   2.0000     -10.274890      -279.5940
   7   2.0000     -10.231868      -278.4233
   8   2.0000     -10.207204      -277.7522
   9   2.0000     -10.205225      -277.6983
  10   2.0000      -9.370264      -254.9779
  11   2.0000      -8.754722      -238.2281
  12   2.0000      -7.106001      -193.3641
  13   2.0000      -7.105963      -193.3631
  14   2.0000      -7.105897      -193.3613
  15   2.0000      -6.568820      -178.7467
  16   2.0000      -6.557041      -178.4262
  17   2.0000      -6.556854      -178.4211
  18   2.0000      -2.654381       -72.2294
  19   2.0000      -2.651150       -72.1415
  20   2.0000      -2.651035       -72.1383
  21   2.0000      -2.641489       -71.8786
  22   2.0000      -2.641471       -71.8781
  23   2.0000      -0.839453       -22.8427
  24   2.0000      -0.775446       -21.1009
  25   2.0000      -0.680793       -18.5253
  26   2.0000      -0.675024       -18.3683
  27   2.0000      -0.669501       -18.2180
  28   2.0000      -0.554202       -15.0806
  29   2.0000      -0.473773       -12.8920
  30   2.0000      -0.459313       -12.4986
  31   2.0000      -0.438950       -11.9444
  32   2.0000      -0.385826       -10.4989
  33   2.0000      -0.384988       -10.4761
  34   2.0000      -0.368737       -10.0339
  35   2.0000      -0.347104        -9.4452
  36   2.0000      -0.335784        -9.1371
  37   2.0000      -0.320501        -8.7213
  38   2.0000      -0.283727        -7.7206
  39   2.0000      -0.281872        -7.6701
  40   2.0000      -0.215088        -5.8528
  41   2.0000      -0.214887        -5.8474
  42   2.0000      -0.211127        -5.7451
  43   0.0000       0.022724         0.6184
  44   0.0000       0.081960         2.2303
  45   0.0000       0.121890         3.3168
  46   0.0000       0.123497         3.3605
  47   0.0000       0.143719         3.9108

MULLIKEN ATOMIC CHARGES
-----------------------
   0 C :   -0.048960
   1 C :   -0.179176
   2 C :   -0.050489
   3 C :   -0.049494
   4 Br:   -0.220296
   5 H :    0.014154
   6 H :    0.032039
   7 H :    0.031863
   8 H :    0.040110
   9 H :    0.032194
  10 H :    0.031562
  11 H :    0.018563
  12 H :    0.098506
  13 H :    0.100784
  14 Cl:   -0.851361
Sum of atomic charges:   -1.0000000

LOEWDIN ATOMIC CHARGES
----------------------
   0 C :   -0.080566
   1 C :   -0.068423
   2 C :   -0.076828
   3 C :   -0.068156
   4 Br:   -0.046408
   5 H :    0.005413
   6 H :    0.017640
   7 H :    0.023653
   8 H :    0.035308
   9 H :    0.024440
  10 H :    0.019023
  11 H :    0.009927
  12 H :    0.037744
  13 H :    0.038089
  14 Cl:   -0.870856

  Mayer bond orders larger than 0.100000
B(  0-C ,  1-C ) :   1.0554 B(  0-C ,  5-H ) :   0.9363 B(  0-C ,  6-H ) :   0.9614
B(  0-C ,  7-H ) :   0.9672 B(  1-C ,  2-C ) :   1.0549 B(  1-C ,  3-C ) :   1.0487
B(  1-C ,  8-H ) :   0.9005 B(  2-C ,  9-H ) :   0.9666 B(  2-C , 10-H ) :   0.9648
B(  2-C , 11-H ) :   0.9447 B(  3-C ,  4-Br) :   0.9571 B(  3-C , 12-H ) :   0.9481
B(  3-C , 13-H ) :   0.9468 B(  5-H , 14-Cl) :   0.1429 B( 11-H , 14-Cl) :   0.1239

Dispersion correction           -0.012509499
FINAL SINGLE POINT ENERGY     -3191.166202334785

DIPOLE MOMENT
-------------
                                X             Y             Z
Electronic contribution:    -21.91825      11.46516     -10.33377
Nuclear contribution   :     17.06198      -8.95274       6.83768
                        -----------------------------------------
Total Dipole Moment    :     -4.85626       2.51242      -3.49609
                        -----------------------------------------
Magnitude (a.u.)       :      6.48985
Magnitude (Debye)      :     16.49589

Dispersion correction in the Hessian             ... done   (      0.8 sec)

VIBRATIONAL FREQUENCIES
-----------------------

Scaling factor for frequencies =  1.000000000  (already applied!)

   0:         0.00 cm**-1
   1:         0.00 cm**-1
   2:         0.00 cm**-1
   3:         0.00 cm**-1
   4:         0.00 cm**-1
   5:         0.00 cm**-1
   6:       -45.23 cm**-1 ***imaginary mode***
   7:        50.66 cm**-1
   8:        92.05 cm**-1
   9:       133.10 cm**-1
  10:       188.27 cm**-1
  11:       260.12 cm**-1
  12:       283.70 cm**-1
  13:       366.31 cm**-1
  14:       374.50 cm**-1
  15:       473.13 cm**-1
  16:       621.66 cm**-1
  17:       818.61 cm**-1
  18:       855.93 cm**-1
  19:       933.31 cm**-1
  20:       984.24 cm**-1
  21:       993.29 cm**-1
  22:      1067.11 cm**-1
  23:      1081.83 cm**-1
  24:      1202.62 cm**-1
  25:      1210.77 cm**-1
  26:      1252.05 cm**-1
  27:      1320.57 cm**-1
  28:      1332.55 cm**-1
  29:      1375.98 cm**-1
  30:      1376.64 cm**-1
  31:      1429.60 cm**-1
  32:      1437.11 cm**-1
  33:      1462.74 cm**-1
  34:      1464.11 cm**-1
  35:      1475.66 cm**-1
  36:      3031.71 cm**-1
  37:      3034.41 cm**-1
  38:      3036.79 cm**-1
  39:      3112.67 cm**-1
  40:      3130.19 cm**-1
  41:      3133.13 cm**-1
  42:      3145.12 cm**-1
  43:      3149.19 cm**-1
  44:      3192.80 cm**-1

IR SPECTRUM
-----------

 Mode    freq (cm**-1)   T**2         TX         TY         TZ
-------------------------------------------------------------------
   7:        50.66    9.335331  ( -1.452542  -2.431181   1.146653)
   8:        92.05   25.994221  ( -4.140942   2.403491  -1.752157)
   9:       133.10    0.669132  ( -0.284234  -0.647053   0.411905)
  10:       188.27   15.748614  (  3.214597  -1.814369   1.457068)
  11:       260.12    0.686313  (  0.728284   0.358229  -0.166095)
  12:       283.70    0.825039  ( -0.488484   0.044996  -0.764459)
  13:       366.31    1.701386  ( -0.567685  -1.092882   0.429799)
  14:       374.50    0.130606  ( -0.002522  -0.312953  -0.180720)
  15:       473.13    5.217198  ( -1.943142   1.192786  -0.136596)
  16:       621.66   60.479024  ( -6.365188   4.431957  -0.566716)
  17:       818.61   34.476530  (  4.683885  -3.226282   1.459061)
  18:       855.93    2.548400  (  1.254619   0.938041  -0.307261)
  19:       933.31    0.587620  ( -0.393288  -0.566850   0.334104)
  20:       984.24    2.668410  ( -0.214569  -1.457017   0.706732)
  21:       993.29   15.878583  (  3.384757  -1.536504   1.435674)
  22:      1067.11   22.822006  ( -2.808092   1.010454  -3.730363)
  23:      1081.83    1.272063  ( -0.572865  -0.845741   0.478132)
  24:      1202.62    2.295806  ( -0.435006   0.467679  -1.373991)
  25:      1210.77    1.276352  ( -0.837879  -0.753625  -0.079757)
  26:      1252.05   66.064645  ( -6.122768   5.000941   1.888634)
  27:      1320.57   18.304806  (  3.671554  -2.089804   0.676178)
  28:      1332.55    3.056881  ( -0.315384  -1.595083   0.642747)
  29:      1375.98   17.198512  ( -2.851340  -2.577558   1.557103)
  30:      1376.64   10.150125  (  0.600583  -2.530609  -1.839957)
  31:      1429.60   11.884084  ( -1.878267   0.227932  -2.881709)
  32:      1437.11    0.849141  (  0.531040   0.703612  -0.268454)
  33:      1462.74    2.195837  (  0.546668  -0.106566   1.373184)
  34:      1464.11    0.502790  ( -0.688504   0.168849  -0.015547)
  35:      1475.66   14.522394  ( -2.070934   2.574148   1.899312)
  36:      3031.71   69.810655  ( -6.674651  -4.498304   2.241639)
  37:      3034.41   22.630044  (  0.982431  -4.363080   1.621235)
  38:      3036.79   27.958698  (  2.329293  -3.636907  -3.050574)
  39:      3112.67   17.481232  (  0.894601  -1.836262  -3.648159)
  40:      3130.19   39.748702  ( -4.271690   0.020420   4.636911)
  41:      3133.13   49.487077  (  0.350352  -6.155021  -3.388222)
  42:      3145.12    2.549766  (  0.990291  -1.142425   0.513764)
  43:      3149.19    0.160020  (  0.016646  -0.039683  -0.397704)
  44:      3192.80    4.712103  ( -1.199375  -1.696164   0.629786)

--------------------------
THERMOCHEMISTRY AT 298.15K
--------------------------

Temperature         ... 298.15 K
Pressure            ... 1.00 atm
Total Mass          ... 172.47 AMU

Throughout the following assumptions are being made:
  (1) The electronic state is orbitally nondegenerate
  (2) There are no thermally accessible electronically excited states
  (3) Hindered rotations indicated by low frequency modes are not
      treated as such but are treated as vibrations and this may
      cause some error
  (4) All equations used are the standard statistical mechanics
      equations for an ideal gas
  (5) All vibrations are strictly harmonic

freq.      50.66  E(vib)   ...       0.52
freq.      92.05  E(vib)   ...       0.47
freq.     133.10  E(vib)   ...       0.42
freq.     188.27  E(vib)   ...       0.36
freq.     260.12  E(vib)   ...       0.30
freq.     283.70  E(vib)   ...       0.28
freq.     366.31  E(vib)   ...       0.22
freq.     374.50  E(vib)   ...       0.21
freq.     473.13  E(vib)   ...       0.15
freq.     621.66  E(vib)   ...       0.09
freq.     818.61  E(vib)   ...       0.05
freq.     855.93  E(vib)   ...       0.04
freq.     933.31  E(vib)   ...       0.03
freq.     984.24  E(vib)   ...       0.02
freq.     993.29  E(vib)   ...       0.02
freq.    1067.11  E(vib)   ...       0.02
freq.    1081.83  E(vib)   ...       0.02
freq.    1202.62  E(vib)   ...       0.01
freq.    1210.77  E(vib)   ...       0.01
freq.    1252.05  E(vib)   ...       0.01
freq.    1320.57  E(vib)   ...       0.01
freq.    1332.55  E(vib)   ...       0.01
freq.    1375.98  E(vib)   ...       0.01
freq.    1376.64  E(vib)   ...       0.01
freq.    1429.60  E(vib)   ...       0.00
freq.    1437.11  E(vib)   ...       0.00
freq.    1462.74  E(vib)   ...       0.00
freq.    1464.11  E(vib)   ...       0.00
freq.    1475.66  E(vib)   ...       0.00
freq.    3031.71  E(vib)   ...       0.00
freq.    3034.41  E(vib)   ...       0.00
freq.    3036.79  E(vib)   ...       0.00
freq.    3112.67  E(vib)   ...       0.00
freq.    3130.19  E(vib)   ...       0.00
freq.    3133.13  E(vib)   ...       0.00
freq.    3145.12  E(vib)   ...       0.00
freq.    3149.19  E(vib)   ...       0.00
freq.    3192.80  E(vib)   ...       0.00

------------
INNER ENERGY
------------

The inner energy is: U= E(el) + E(ZPE) + E(vib) + E(rot) + E(trans)
    E(el)   - is the total energy from the electronic structure calculation
              = E(kin-el) + E(nuc-el) + E(el-el) + E(nuc-nuc)
    E(ZPE)  - the the zero temperature vibrational energy from the frequency calculation
    E(vib)  - the the finite temperature correction to E(ZPE) due to population
              of excited vibrational states
    E(rot)  - is the rotational thermal energy
    E(trans)- is the translational thermal energy

Summary of contributions to the inner energy U:
Electronic energy                ...  -3191.16620233 Eh
Zero point energy                ...      0.12275733 Eh      77.03 kcal/mol
Thermal vibrational correction   ...      0.00525059 Eh       3.29 kcal/mol
Thermal rotational correction    ...      0.00141627 Eh       0.89 kcal/mol
Thermal translational correction ...      0.00141627 Eh       0.89 kcal/mol
-----------------------------------------------------------------------
Total thermal energy                  -3191.03536187 Eh

Summary of corrections to the electronic energy:
(perhaps to be used in another calculation)
Total thermal correction                  0.00808313 Eh       5.07 kcal/mol
Non-thermal (ZPE) correction              0.12275733 Eh      77.03 kcal/mol
-----------------------------------------------------------------------
Total correction                          0.13084046 Eh      82.10 kcal/mol

--------
ENTHALPY
--------

The enthalpy is H = U + kB*T
                kB is Boltzmann's constant
Total free energy                 ...  -3191.03536187 Eh
Thermal Enthalpy correction       ...      0.00094421 Eh       0.59 kcal/mol
-----------------------------------------------------------------------
Total Enthalpy                    ...  -3191.03441766 Eh

Note: Only C1 symmetry has been detected, increase convergence thresholds
      if your molecule has a higher symmetry. Symmetry factor of 1.0 is
      used for the rotational entropy correction.

Note: Rotational entropy computed according to Herzberg
Infrared and Raman Spectra, Chapter V,1, Van Nostrand Reinhold, 1945
Point Group:  C1, Symmetry Number:   1
Rotational constants in cm-1:     0.186713     0.014995     0.014702

Vibrational entropy computed according to the QRRHO of S. Grimme
Chem.Eur.J. 2012 18 9955

-------
ENTROPY
-------

The entropy contributions are T*S = T*(S(el)+S(vib)+S(rot)+S(trans))
     S(el)   - electronic entropy
     S(vib)  - vibrational entropy
     S(rot)  - rotational entropy
     S(trans)- translational entropy
The entropies will be listed as mutliplied by the temperature to get
units of energy

Electronic entropy                ...      0.00000000 Eh      0.00 kcal/mol
Vibrational entropy               ...      0.00925226 Eh      5.81 kcal/mol
Rotational entropy                ...      0.01427797 Eh      8.96 kcal/mol
Translational entropy             ...      0.01964318 Eh     12.33 kcal/mol
-----------------------------------------------------------------------
Final entropy term                ...      0.04317340 Eh     27.09 kcal/mol

In case the symmetry of your molecule has not been determined correctly
or in case you have a reason to use a different symmetry number we print
out the resulting rotational entropy values for sn=1,12 :
 --------------------------------------------------------
|  sn= 1 | S(rot)=       0.01427797 Eh      8.96 kcal/mol|
|  sn= 2 | S(rot)=       0.01362351 Eh      8.55 kcal/mol|
|  sn= 3 | S(rot)=       0.01324068 Eh      8.31 kcal/mol|
|  sn= 4 | S(rot)=       0.01296905 Eh      8.14 kcal/mol|
|  sn= 5 | S(rot)=       0.01275836 Eh      8.01 kcal/mol|
|  sn= 6 | S(rot)=       0.01258622 Eh      7.90 kcal/mol|
|  sn= 7 | S(rot)=       0.01244067 Eh      7.81 kcal/mol|
|  sn= 8 | S(rot)=       0.01231460 Eh      7.73 kcal/mol|
|  sn= 9 | S(rot)=       0.01220339 Eh      7.66 kcal/mol|
|  sn=10 | S(rot)=       0.01210391 Eh      7.60 kcal/mol|
|  sn=11 | S(rot)=       0.01201392 Eh      7.54 kcal/mol|
|  sn=12 | S(rot)=       0.01193176 Eh      7.49 kcal/mol|
 --------------------------------------------------------

-------------------
GIBBS FREE ENERGY
-------------------

The Gibbs free energy is G = H - T*S

Total enthalpy                    ...  -3191.03441766 Eh
Total entropy correction          ...     -0.04317340 Eh    -27.09 kcal/mol
-----------------------------------------------------------------------
Final Gibbs free energy         ...  -3191.07759107 Eh

                             ****ORCA TERMINATED NORMALLY****
TOTAL RUN TIME: 0 days 0 hours 1 minutes 18 seconds 714 msec
