                         Program Version 4.2.1 -  RELEASE  -
|  1> ! Freq PBE0 RIJCOSX D3BJ def2-SVP def2/J CPCM(Acetone)
|  2> %geom MaxIter 100 end
|  3> %output
|  4> xyzfile=True
|  5> end
|  6> %scf
|  7> maxiter 250
|  8> end
|  9> %output
| 10> Print[P_Hirshfeld] = 1
| 11> end
| 12> % maxcore
| 13> 4000
| 14> %pal nprocs 4
| 15> end
| 16> *xyz -1 1
| 17>   C   1.41700288821761      0.00090613864985      0.26849819360519
| 18>   C   0.35382184878315      0.91220487798168     -0.32937538065915
| 19>   C   -0.72031643014092      1.27614019704133      0.68960266339731
| 20>   C   -0.21811286740130      0.39097389414160     -1.63415254549130
| 21>   Br  -1.11201436074547     -1.35498283038357     -1.47476873771793
| 22>   H   1.89776633357160      0.49168377337067      1.12923069410356
| 23>   H   0.96594253674738     -0.93968053573454      0.62498489674897
| 24>   H   2.19431730878892     -0.25431885252935     -0.46837280549503
| 25>   H   0.85298551269917      1.85053697348755     -0.64167184717158
| 26>   H   -1.47536472594162      1.95135111978545      0.25692923733628
| 27>   H   -1.23997894392062      0.37468616520873      1.05325096280170
| 28>   H   -0.26694639683976      1.77525416747473      1.56006326322713
| 29>   H   -0.98775537659885      1.06068161087586     -2.03889341445779
| 30>   H   0.56290447460408      0.23273962772923     -2.38831012337801
| 31>   Br  2.30476819817664      2.15184367290077      3.73633494315065
| 32> *
| 33>
| 34>                          ****END OF INPUT****

CARTESIAN COORDINATES (ANGSTROEM)
---------------------------------
  C      1.417003    0.000906    0.268498
  C      0.353822    0.912205   -0.329375
  C     -0.720316    1.276140    0.689603
  C     -0.218113    0.390974   -1.634153
  Br    -1.112014   -1.354983   -1.474769
  H      1.897766    0.491684    1.129231
  H      0.965943   -0.939681    0.624985
  H      2.194317   -0.254319   -0.468373
  H      0.852986    1.850537   -0.641672
  H     -1.475365    1.951351    0.256929
  H     -1.239979    0.374686    1.053251
  H     -0.266946    1.775254    1.560063
  H     -0.987755    1.060682   -2.038893
  H      0.562904    0.232740   -2.388310
  Br     2.304768    2.151844    3.736335

 Total Charge           Charge          ....   -1
 Multiplicity           Mult            ....    1
 Number of Electrons    NEL             ....  104
 Basis Dimension        Dim             ....  165

ORBITAL ENERGIES
----------------

  NO   OCC          E(Eh)            E(eV)
   0   2.0000    -483.174167    -13147.8375
   1   2.0000    -483.064986    -13144.8665
   2   2.0000     -62.610224     -1703.7108
   3   2.0000     -62.500107     -1700.7144
   4   2.0000     -56.399370     -1534.7049
   5   2.0000     -56.397141     -1534.6442
   6   2.0000     -56.397068     -1534.6423
   7   2.0000     -56.288147     -1531.6783
   8   2.0000     -56.288025     -1531.6750
   9   2.0000     -56.287628     -1531.6642
  10   2.0000     -10.276028      -279.6249
  11   2.0000     -10.237422      -278.5744
  12   2.0000     -10.212797      -277.9043
  13   2.0000     -10.210390      -277.8388
  14   2.0000      -8.755465      -238.2483
  15   2.0000      -8.643563      -235.2033
  16   2.0000      -6.569644      -178.7691
  17   2.0000      -6.557746      -178.4453
  18   2.0000      -6.557542      -178.4398
  19   2.0000      -6.449935      -175.5117
  20   2.0000      -6.449901      -175.5107
  21   2.0000      -6.449768      -175.5071
  22   2.0000      -2.655181       -72.2512
  23   2.0000      -2.651974       -72.1639
  24   2.0000      -2.651750       -72.1578
  25   2.0000      -2.642157       -71.8967
  26   2.0000      -2.642150       -71.8966
  27   2.0000      -2.536807       -69.0300
  28   2.0000      -2.536779       -69.0293
  29   2.0000      -2.536723       -69.0278
  30   2.0000      -2.536692       -69.0269
  31   2.0000      -2.536650       -69.0258
  32   2.0000      -0.842688       -22.9307
  33   2.0000      -0.777654       -21.1610
  34   2.0000      -0.685961       -18.6659
  35   2.0000      -0.674803       -18.3623
  36   2.0000      -0.652579       -17.7576
  37   2.0000      -0.558382       -15.1943
  38   2.0000      -0.477258       -12.9868
  39   2.0000      -0.462213       -12.5775
  40   2.0000      -0.442199       -12.0328
  41   2.0000      -0.388466       -10.5707
  42   2.0000      -0.386487       -10.5168
  43   2.0000      -0.373127       -10.1533
  44   2.0000      -0.351935        -9.5766
  45   2.0000      -0.340545        -9.2667
  46   2.0000      -0.324258        -8.8235
  47   2.0000      -0.284078        -7.7302
  48   2.0000      -0.281994        -7.6735
  49   2.0000      -0.216143        -5.8815
  50   2.0000      -0.216034        -5.8786
  51   2.0000      -0.213775        -5.8171
  52   0.0000       0.022918         0.6236
  53   0.0000       0.075860         2.0643
  54   0.0000       0.121689         3.3113
  55   0.0000       0.123630         3.3641
  56   0.0000       0.139056         3.7839

MULLIKEN ATOMIC CHARGES
-----------------------
   0 C :   -0.043841
   1 C :   -0.193562
   2 C :   -0.052318
   3 C :   -0.068740
   4 Br:   -0.209815
   5 H :    0.034909
   6 H :    0.035565
   7 H :    0.040591
   8 H :    0.063224
   9 H :    0.045124
  10 H :    0.036462
  11 H :    0.038707
  12 H :    0.106450
  13 H :    0.106065
  14 Br:   -0.938821
Sum of atomic charges:   -1.0000000

LOEWDIN ATOMIC CHARGES
----------------------
   0 C :   -0.073840
   1 C :   -0.069047
   2 C :   -0.071687
   3 C :   -0.070740
   4 Br:   -0.036335
   5 H :    0.019301
   6 H :    0.021266
   7 H :    0.028122
   8 H :    0.047031
   9 H :    0.029077
  10 H :    0.023236
  11 H :    0.024496
  12 H :    0.039948
  13 H :    0.039912
  14 Br:   -0.950738

  Mayer bond orders larger than 0.100000
B(  0-C ,  1-C ) :   1.0566 B(  0-C ,  5-H ) :   0.9535 B(  0-C ,  6-H ) :   0.9613
B(  0-C ,  7-H ) :   0.9667 B(  1-C ,  2-C ) :   1.0577 B(  1-C ,  3-C ) :   1.0441
B(  1-C ,  8-H ) :   0.9096 B(  2-C ,  9-H ) :   0.9686 B(  2-C , 10-H ) :   0.9640
B(  2-C , 11-H ) :   0.9594 B(  3-C ,  4-Br) :   0.9648 B(  3-C , 12-H ) :   0.9478
B(  3-C , 13-H ) :   0.9464

Dispersion correction           -0.011933666
FINAL SINGLE POINT ENERGY     -5304.822562284047

DIPOLE MOMENT
-------------
                                X             Y             Z
Electronic contribution:      0.95714      -5.54449       8.71808
Nuclear contribution   :     -3.69209       3.46654     -14.02604
                        -----------------------------------------
Total Dipole Moment    :     -2.73496      -2.07795      -5.30796
                        -----------------------------------------
Magnitude (a.u.)       :      6.32236
Magnitude (Debye)      :     16.07017

Dispersion correction in the Hessian             ... done   (      0.8 sec)

VIBRATIONAL FREQUENCIES
-----------------------

Scaling factor for frequencies =  1.000000000  (already applied!)

   0:         0.00 cm**-1
   1:         0.00 cm**-1
   2:         0.00 cm**-1
   3:         0.00 cm**-1
   4:         0.00 cm**-1
   5:         0.00 cm**-1
   6:       -11.42 cm**-1 ***imaginary mode***
   7:        20.89 cm**-1
   8:        34.45 cm**-1
   9:       109.99 cm**-1
  10:       176.21 cm**-1
  11:       248.35 cm**-1
  12:       267.41 cm**-1
  13:       363.63 cm**-1
  14:       373.57 cm**-1
  15:       475.91 cm**-1
  16:       625.24 cm**-1
  17:       819.36 cm**-1
  18:       854.40 cm**-1
  19:       926.54 cm**-1
  20:       979.00 cm**-1
  21:       991.80 cm**-1
  22:      1072.68 cm**-1
  23:      1083.36 cm**-1
  24:      1206.22 cm**-1
  25:      1211.06 cm**-1
  26:      1254.90 cm**-1
  27:      1332.78 cm**-1
  28:      1335.35 cm**-1
  29:      1385.47 cm**-1
  30:      1392.47 cm**-1
  31:      1429.32 cm**-1
  32:      1441.15 cm**-1
  33:      1456.20 cm**-1
  34:      1465.55 cm**-1
  35:      1468.21 cm**-1
  36:      3026.38 cm**-1
  37:      3039.91 cm**-1
  38:      3043.95 cm**-1
  39:      3118.90 cm**-1
  40:      3137.16 cm**-1
  41:      3139.17 cm**-1
  42:      3145.38 cm**-1
  43:      3147.08 cm**-1
  44:      3199.09 cm**-1

IR SPECTRUM
-----------

 Mode    freq (cm**-1)   T**2         TX         TY         TZ
-------------------------------------------------------------------
   7:        20.89    4.490835  (  1.639674   0.000676   1.342499)
   8:        34.45    9.178512  (  0.933378   1.545746   2.432691)
   9:       109.99    0.293763  ( -0.475478   0.234738   0.112168)
  10:       176.21    3.287149  ( -0.858355  -0.974023  -1.265565)
  11:       248.35    0.160032  (  0.392837  -0.072597   0.020988)
  12:       267.41    0.547117  (  0.436416   0.596161  -0.035361)
  13:       363.63    1.110940  (  0.994263  -0.279452  -0.210447)
  14:       373.57    0.297801  (  0.193987  -0.455164   0.230208)
  15:       475.91    6.753193  ( -1.170565  -2.311220  -0.203054)
  16:       625.24   44.271233  ( -3.327564  -5.669888  -1.025141)
  17:       819.36   20.258222  (  2.506223   3.489298   1.342335)
  18:       854.40    4.593582  ( -1.653730   1.252957   0.537456)
  19:       926.54    2.561421  (  1.304537  -0.873869  -0.309770)
  20:       979.00    0.639118  (  0.729922   0.004491   0.326054)
  21:       991.80   16.657987  (  2.024868   2.320649   2.678150)
  22:      1072.68    2.621109  ( -0.418742   0.167890  -1.554856)
  23:      1083.36    1.415997  (  0.960422  -0.679650  -0.177937)
  24:      1206.22    1.997928  ( -0.637669   0.285377  -1.228766)
  25:      1211.06    1.169140  (  0.792340  -0.369478  -0.636257)
  26:      1254.90   62.663574  ( -3.522668  -7.064073   0.594357)
  27:      1332.78   16.568710  (  2.108877   2.983318   1.794758)
  28:      1335.35    8.981972  (  1.541401   2.175042   1.369396)
  29:      1385.47   13.955165  (  2.962225  -1.860663  -1.310849)
  30:      1392.47    7.882950  (  1.042717  -0.461202   2.565733)
  31:      1429.32    8.581947  ( -0.925691  -0.743317  -2.678156)
  32:      1441.15    0.933026  ( -0.717666   0.614803  -0.199996)
  33:      1456.20    2.690008  (  0.837887  -1.308178   0.525949)
  34:      1465.55   17.839353  ( -1.234077  -2.767893   2.941968)
  35:      1468.21    8.925018  ( -1.155043  -1.117669  -2.518275)
  36:      3026.38   18.564266  (  1.525624   3.265410  -2.360897)
  37:      3039.91   41.926330  ( -4.354396   4.549973   1.504430)
  38:      3043.95   15.693307  ( -3.685168  -0.253811   1.431231)
  39:      3118.90   15.360266  (  0.573527   2.385993  -3.055875)
  40:      3137.16   13.554241  (  3.007284   0.238001  -2.110412)
  41:      3139.17   42.912811  (  0.779961   5.748611  -3.042688)
  42:      3145.38   14.317746  (  3.406203  -0.435588  -1.589273)
  43:      3147.08    7.550747  (  1.863850  -0.209853   2.008177)
  44:      3199.09    2.988461  (  1.513640  -0.759159  -0.347898)

--------------------------
THERMOCHEMISTRY AT 298.15K
--------------------------

Temperature         ... 298.15 K
Pressure            ... 1.00 atm
Total Mass          ... 216.92 AMU

Throughout the following assumptions are being made:
  (1) The electronic state is orbitally nondegenerate
  (2) There are no thermally accessible electronically excited states
  (3) Hindered rotations indicated by low frequency modes are not
      treated as such but are treated as vibrations and this may
      cause some error
  (4) All equations used are the standard statistical mechanics
      equations for an ideal gas
  (5) All vibrations are strictly harmonic

freq.      20.89  E(vib)   ...       0.56
freq.      34.45  E(vib)   ...       0.54
freq.     109.99  E(vib)   ...       0.45
freq.     176.21  E(vib)   ...       0.38
freq.     248.35  E(vib)   ...       0.31
freq.     267.41  E(vib)   ...       0.29
freq.     363.63  E(vib)   ...       0.22
freq.     373.57  E(vib)   ...       0.21
freq.     475.91  E(vib)   ...       0.15
freq.     625.24  E(vib)   ...       0.09
freq.     819.36  E(vib)   ...       0.05
freq.     854.40  E(vib)   ...       0.04
freq.     926.54  E(vib)   ...       0.03
freq.     979.00  E(vib)   ...       0.03
freq.     991.80  E(vib)   ...       0.02
freq.    1072.68  E(vib)   ...       0.02
freq.    1083.36  E(vib)   ...       0.02
freq.    1206.22  E(vib)   ...       0.01
freq.    1211.06  E(vib)   ...       0.01
freq.    1254.90  E(vib)   ...       0.01
freq.    1332.78  E(vib)   ...       0.01
freq.    1335.35  E(vib)   ...       0.01
freq.    1385.47  E(vib)   ...       0.00
freq.    1392.47  E(vib)   ...       0.00
freq.    1429.32  E(vib)   ...       0.00
freq.    1441.15  E(vib)   ...       0.00
freq.    1456.20  E(vib)   ...       0.00
freq.    1465.55  E(vib)   ...       0.00
freq.    1468.21  E(vib)   ...       0.00
freq.    3026.38  E(vib)   ...       0.00
freq.    3039.91  E(vib)   ...       0.00
freq.    3043.95  E(vib)   ...       0.00
freq.    3118.90  E(vib)   ...       0.00
freq.    3137.16  E(vib)   ...       0.00
freq.    3139.17  E(vib)   ...       0.00
freq.    3145.38  E(vib)   ...       0.00
freq.    3147.08  E(vib)   ...       0.00
freq.    3199.09  E(vib)   ...       0.00

------------
INNER ENERGY
------------

The inner energy is: U= E(el) + E(ZPE) + E(vib) + E(rot) + E(trans)
    E(el)   - is the total energy from the electronic structure calculation
              = E(kin-el) + E(nuc-el) + E(el-el) + E(nuc-nuc)
    E(ZPE)  - the the zero temperature vibrational energy from the frequency calculation
    E(vib)  - the the finite temperature correction to E(ZPE) due to population
              of excited vibrational states
    E(rot)  - is the rotational thermal energy
    E(trans)- is the translational thermal energy

Summary of contributions to the inner energy U:
Electronic energy                ...  -5304.82256228 Eh
Zero point energy                ...      0.12256196 Eh      76.91 kcal/mol
Thermal vibrational correction   ...      0.00553223 Eh       3.47 kcal/mol
Thermal rotational correction    ...      0.00141627 Eh       0.89 kcal/mol
Thermal translational correction ...      0.00141627 Eh       0.89 kcal/mol
-----------------------------------------------------------------------
Total thermal energy                  -5304.69163556 Eh

Summary of corrections to the electronic energy:
(perhaps to be used in another calculation)
Total thermal correction                  0.00836477 Eh       5.25 kcal/mol
Non-thermal (ZPE) correction              0.12256196 Eh      76.91 kcal/mol
-----------------------------------------------------------------------
Total correction                          0.13092673 Eh      82.16 kcal/mol

--------
ENTHALPY
--------

The enthalpy is H = U + kB*T
                kB is Boltzmann's constant
Total free energy                 ...  -5304.69163556 Eh
Thermal Enthalpy correction       ...      0.00094421 Eh       0.59 kcal/mol
-----------------------------------------------------------------------
Total Enthalpy                    ...  -5304.69069135 Eh

Note: Only C1 symmetry has been detected, increase convergence thresholds
      if your molecule has a higher symmetry. Symmetry factor of 1.0 is
      used for the rotational entropy correction.

Note: Rotational entropy computed according to Herzberg
Infrared and Raman Spectra, Chapter V,1, Van Nostrand Reinhold, 1945
Point Group:  C1, Symmetry Number:   1
Rotational constants in cm-1:     0.147561     0.007723     0.007677

Vibrational entropy computed according to the QRRHO of S. Grimme
Chem.Eur.J. 2012 18 9955

-------
ENTROPY
-------

The entropy contributions are T*S = T*(S(el)+S(vib)+S(rot)+S(trans))
     S(el)   - electronic entropy
     S(vib)  - vibrational entropy
     S(rot)  - rotational entropy
     S(trans)- translational entropy
The entropies will be listed as mutliplied by the temperature to get
units of energy

Electronic entropy                ...      0.00000000 Eh      0.00 kcal/mol
Vibrational entropy               ...      0.01023424 Eh      6.42 kcal/mol
Rotational entropy                ...      0.01500909 Eh      9.42 kcal/mol
Translational entropy             ...      0.01996792 Eh     12.53 kcal/mol
-----------------------------------------------------------------------
Final entropy term                ...      0.04521124 Eh     28.37 kcal/mol

In case the symmetry of your molecule has not been determined correctly
or in case you have a reason to use a different symmetry number we print
out the resulting rotational entropy values for sn=1,12 :
 --------------------------------------------------------
|  sn= 1 | S(rot)=       0.01500909 Eh      9.42 kcal/mol|
|  sn= 2 | S(rot)=       0.01435463 Eh      9.01 kcal/mol|
|  sn= 3 | S(rot)=       0.01397180 Eh      8.77 kcal/mol|
|  sn= 4 | S(rot)=       0.01370017 Eh      8.60 kcal/mol|
|  sn= 5 | S(rot)=       0.01348948 Eh      8.46 kcal/mol|
|  sn= 6 | S(rot)=       0.01331734 Eh      8.36 kcal/mol|
|  sn= 7 | S(rot)=       0.01317179 Eh      8.27 kcal/mol|
|  sn= 8 | S(rot)=       0.01304572 Eh      8.19 kcal/mol|
|  sn= 9 | S(rot)=       0.01293451 Eh      8.12 kcal/mol|
|  sn=10 | S(rot)=       0.01283503 Eh      8.05 kcal/mol|
|  sn=11 | S(rot)=       0.01274504 Eh      8.00 kcal/mol|
|  sn=12 | S(rot)=       0.01266288 Eh      7.95 kcal/mol|
 --------------------------------------------------------

-------------------
GIBBS FREE ENERGY
-------------------

The Gibbs free energy is G = H - T*S

Total enthalpy                    ...  -5304.69069135 Eh
Total entropy correction          ...     -0.04521124 Eh    -28.37 kcal/mol
-----------------------------------------------------------------------
Final Gibbs free energy         ...  -5304.73590259 Eh

                             ****ORCA TERMINATED NORMALLY****
TOTAL RUN TIME: 0 days 0 hours 1 minutes 35 seconds 475 msec
