                         Program Version 4.2.1 -  RELEASE  -
|  1> ! SP CCSD(T) def2-TZVP CPCM(Acetone)
|  2> %cpcm
|  3> surfacetype vdw_gaussian
|  4> end
|  5> %geom MaxIter 100 end
|  6> %output
|  7> xyzfile=True
|  8> end
|  9> %scf
| 10> maxiter 250
| 11> end
| 12> %output
| 13> Print[P_Hirshfeld] = 1
| 14> end
| 15> % maxcore
| 16> 4000
| 17> %pal nprocs 4
| 18> end
| 19> *xyz -1 1
| 20>   C   1.38676343781483     -0.50070692648455     -0.85113703756399
| 21>   C   0.10282325643984     -0.23705841915218     -0.10077833998079
| 22>   C   -0.70069084855389     -1.48001335490332      0.20314542185045
| 23>   Br  -1.01833724084234      1.02272479165688     -1.15434352377750
| 24>   H   1.90940732673292      0.43286533760312     -1.10271707522504
| 25>   H   1.19811626613602     -1.06263863062883     -1.77864885569647
| 26>   H   2.04545600042489     -1.10047801199197     -0.20239551690917
| 27>   H   0.30589884646771      0.32532249216837      0.82077121461565
| 28>   H   -1.62090891524803     -1.24508528817934      0.75621565913002
| 29>   H   -0.08255890290999     -2.13900173320669      0.83410727354168
| 30>   H   -0.96849834964586     -2.01964746467622     -0.71815234927918
| 31>   Br  2.10407912318389     -1.45245279220526      3.13843312929433
| 32> *
| 33>
| 34>                          ****END OF INPUT****

CARTESIAN COORDINATES (ANGSTROEM)
---------------------------------
  C      1.386763   -0.500707   -0.851137
  C      0.102823   -0.237058   -0.100778
  C     -0.700691   -1.480013    0.203145
  Br    -1.018337    1.022725   -1.154344
  H      1.909407    0.432865   -1.102717
  H      1.198116   -1.062639   -1.778649
  H      2.045456   -1.100478   -0.202396
  H      0.305899    0.325322    0.820771
  H     -1.620909   -1.245085    0.756216
  H     -0.082559   -2.139002    0.834107
  H     -0.968498   -2.019647   -0.718152
  Br     2.104079   -1.452453    3.138433

 Total Charge           Charge          ....   -1
 Multiplicity           Mult            ....    1
 Number of Electrons    NEL             ....   96
 Basis Dimension        Dim             ....  231

ORBITAL ENERGIES
----------------

  NO   OCC          E(Eh)            E(eV)
   0   2.0000    -489.996505    -13333.4828
   1   2.0000    -489.909954    -13331.1276
   2   2.0000     -65.139181     -1772.5272
   3   2.0000     -65.053151     -1770.1862
   4   2.0000     -58.494237     -1591.7091
   5   2.0000     -58.493124     -1591.6788
   6   2.0000     -58.493116     -1591.6786
   7   2.0000     -58.407541     -1589.3500
   8   2.0000     -58.407538     -1589.3499
   9   2.0000     -58.407518     -1589.3494
  10   2.0000     -11.286742      -307.1279
  11   2.0000     -11.216476      -305.2158
  12   2.0000     -11.215876      -305.1995
  13   2.0000      -9.812600      -267.0144
  14   2.0000      -9.726508      -264.6717
  15   2.0000      -7.423881      -202.0141
  16   2.0000      -7.418509      -201.8679
  17   2.0000      -7.418491      -201.8674
  18   2.0000      -7.334540      -199.5830
  19   2.0000      -7.334525      -199.5826
  20   2.0000      -7.334438      -199.5802
  21   2.0000      -3.166113       -86.1543
  22   2.0000      -3.163390       -86.0802
  23   2.0000      -3.163336       -86.0787
  24   2.0000      -3.156520       -85.8933
  25   2.0000      -3.156514       -85.8931
  26   2.0000      -3.075311       -83.6835
  27   2.0000      -3.075309       -83.6834
  28   2.0000      -3.075186       -83.6801
  29   2.0000      -3.075165       -83.6795
  30   2.0000      -3.075127       -83.6785
  31   2.0000      -1.095643       -29.8140
  32   2.0000      -0.965010       -26.2592
  33   2.0000      -0.934523       -25.4297
  34   2.0000      -0.886717       -24.1288
  35   2.0000      -0.777160       -21.1476
  36   2.0000      -0.628508       -17.1026
  37   2.0000      -0.593905       -16.1610
  38   2.0000      -0.568295       -15.4641
  39   2.0000      -0.536539       -14.6000
  40   2.0000      -0.496640       -13.5143
  41   2.0000      -0.495877       -13.4935
  42   2.0000      -0.444374       -12.0920
  43   2.0000      -0.395575       -10.7642
  44   2.0000      -0.395178       -10.7533
  45   2.0000      -0.342020        -9.3068
  46   2.0000      -0.341965        -9.3053
  47   2.0000      -0.340572        -9.2674
  48   0.0000       0.148254         4.0342
  49   0.0000       0.163522         4.4497
  50   0.0000       0.194864         5.3025
  51   0.0000       0.197099         5.3633
  52   0.0000       0.228227         6.2104

E(0)                                       ...  -5262.736464929
E(0)                                       ...  -5262.736464929
E(CORR)                                    ...     -1.122787807
E(TOT)                                     ...  -5263.859252736
E(CCSD(T))                                 ...  -5263.899417362

MULLIKEN ATOMIC CHARGES
-----------------------
   0 C :   -0.407084
   1 C :    0.019176
   2 C :   -0.406332
   3 Br:   -0.232354
   4 H :    0.148517
   5 H :    0.139026
   6 H :    0.143604
   7 H :    0.136353
   8 H :    0.147831
   9 H :    0.143915
  10 H :    0.139656
  11 Br:   -0.972306
Sum of atomic charges:   -1.0000000

LOEWDIN ATOMIC CHARGES
----------------------
   0 C :   -0.328094
   1 C :   -0.476147
   2 C :   -0.329775
   3 Br:    0.168887
   4 H :    0.127586
   5 H :    0.128405
   6 H :    0.131059
   7 H :    0.145574
   8 H :    0.127795
   9 H :    0.130050
  10 H :    0.127657
  11 Br:   -0.952997

  Mayer bond orders larger than 0.100000
B(  0-C ,  1-C ) :   0.9302 B(  0-C ,  4-H ) :   0.9195 B(  0-C ,  5-H ) :   0.9150
B(  0-C ,  6-H ) :   0.9051 B(  1-C ,  2-C ) :   0.9294 B(  1-C ,  3-Br) :   0.8521
B(  1-C ,  7-H ) :   0.9090 B(  2-C ,  8-H ) :   0.9200 B(  2-C ,  9-H ) :   0.9042
B(  2-C , 10-H ) :   0.9143

FINAL SINGLE POINT ENERGY     -5263.899417362016

DIPOLE MOMENT
-------------
                                X             Y             Z
Electronic contribution:     -0.67124       7.66738       7.16699
Nuclear contribution   :     -1.60764      -6.41084     -10.96365
                        -----------------------------------------
Total Dipole Moment    :     -2.27888       1.25654      -3.79665
                        -----------------------------------------
Magnitude (a.u.)       :      4.60291
Magnitude (Debye)      :     11.69966

Rotational constants in cm-1:     0.157075     0.011641     0.011600
Rotational constants in MHz :  4708.985442   348.985849   347.761557

                             ****ORCA TERMINATED NORMALLY****
TOTAL RUN TIME: 0 days 0 hours 21 minutes 7 seconds 489 msec
