                         Program Version 4.2.1 -  RELEASE  -
|  1> ! SP CCSD(T) def2-TZVP CPCM(Acetone)
|  2> %cpcm
|  3> surfacetype vdw_gaussian
|  4> end
|  5> %geom MaxIter 100 end
|  6> %output
|  7> xyzfile=True
|  8> end
|  9> %scf
| 10> maxiter 250
| 11> end
| 12> %output
| 13> Print[P_Hirshfeld] = 1
| 14> end
| 15> % maxcore
| 16> 4000
| 17> %pal nprocs 4
| 18> end
| 19> *xyz -1 1
| 20>   C   -2.83443589814257      0.34156349432677      0.60791013432083
| 21>   C   -1.77940796266516      0.19670555409679     -0.47955621915518
| 22>   C   -0.41326187417069      0.60765756429434      0.02075187296000
| 23>   Br  0.97479566067299      0.26161000385141     -1.31811452783573
| 24>   H   -3.82006962851169      0.02641349023542      0.23261125855102
| 25>   H   -2.58539069626848     -0.27833322862804      1.48291853345261
| 26>   H   -2.92144451945568      1.38433077822247      0.95288369192354
| 27>   H   -1.73888537161634     -0.85088283203809     -0.81967857510174
| 28>   H   -2.05007443072217      0.80207709037375     -1.35996412570757
| 29>   H   -0.10067852335438      0.04289077819633      0.91285493496357
| 30>   H   -0.35013475327696      1.68367583408518      0.23261854101184
| 31>   Br  0.37840799751115     -1.30253852701632      3.24933448061680
| 32> *
| 33>
| 34>                          ****END OF INPUT****

CARTESIAN COORDINATES (ANGSTROEM)
---------------------------------
  C     -2.834436    0.341563    0.607910
  C     -1.779408    0.196706   -0.479556
  C     -0.413262    0.607658    0.020752
  Br     0.974796    0.261610   -1.318115
  H     -3.820070    0.026413    0.232611
  H     -2.585391   -0.278333    1.482919
  H     -2.921445    1.384331    0.952884
  H     -1.738885   -0.850883   -0.819679
  H     -2.050074    0.802077   -1.359964
  H     -0.100679    0.042891    0.912855
  H     -0.350135    1.683676    0.232619
  Br     0.378408   -1.302539    3.249334

 Total Charge           Charge          ....   -1
 Multiplicity           Mult            ....    1
 Number of Electrons    NEL             ....   96
 Basis Dimension        Dim             ....  231

ORBITAL ENERGIES
----------------

  NO   OCC          E(Eh)            E(eV)
   0   2.0000    -489.999836    -13333.5734
   1   2.0000    -489.911143    -13331.1599
   2   2.0000     -65.142439     -1772.6159
   3   2.0000     -65.054358     -1770.2191
   4   2.0000     -58.497541     -1591.7990
   5   2.0000     -58.496375     -1591.7673
   6   2.0000     -58.496366     -1591.7670
   7   2.0000     -58.408746     -1589.3828
   8   2.0000     -58.408745     -1589.3828
   9   2.0000     -58.408726     -1589.3822
  10   2.0000     -11.271824      -306.7219
  11   2.0000     -11.222478      -305.3791
  12   2.0000     -11.209597      -305.0286
  13   2.0000      -9.815908      -267.1044
  14   2.0000      -9.727753      -264.7056
  15   2.0000      -7.427388      -202.1095
  16   2.0000      -7.421741      -201.9559
  17   2.0000      -7.421687      -201.9544
  18   2.0000      -7.335768      -199.6164
  19   2.0000      -7.335765      -199.6163
  20   2.0000      -7.335704      -199.6147
  21   2.0000      -3.169726       -86.2526
  22   2.0000      -3.166823       -86.1736
  23   2.0000      -3.166785       -86.1726
  24   2.0000      -3.159607       -85.9773
  25   2.0000      -3.159600       -85.9771
  26   2.0000      -3.076535       -83.7168
  27   2.0000      -3.076534       -83.7168
  28   2.0000      -3.076427       -83.7138
  29   2.0000      -3.076420       -83.7136
  30   2.0000      -3.076383       -83.7126
  31   2.0000      -1.084388       -29.5077
  32   2.0000      -1.000225       -27.2175
  33   2.0000      -0.889182       -24.1959
  34   2.0000      -0.883836       -24.0504
  35   2.0000      -0.795486       -21.6463
  36   2.0000      -0.640509       -17.4291
  37   2.0000      -0.582551       -15.8520
  38   2.0000      -0.553438       -15.0598
  39   2.0000      -0.548518       -14.9259
  40   2.0000      -0.490633       -13.3508
  41   2.0000      -0.472760       -12.8644
  42   2.0000      -0.457398       -12.4464
  43   2.0000      -0.395868       -10.7721
  44   2.0000      -0.395357       -10.7582
  45   2.0000      -0.343366        -9.3435
  46   2.0000      -0.343192        -9.3387
  47   2.0000      -0.340557        -9.2670
  48   0.0000       0.141226         3.8430
  49   0.0000       0.175386         4.7725
  50   0.0000       0.191973         5.2238
  51   0.0000       0.197425         5.3722
  52   0.0000       0.221249         6.0205

E(0)                                       ...  -5262.733458682
E(0)                                       ...  -5262.733458682
E(CORR)                                    ...     -1.121899683
E(TOT)                                     ...  -5263.855358365
E(CCSD(T))                                 ...  -5263.895186037

MULLIKEN ATOMIC CHARGES
-----------------------
   0 C :   -0.418579
   1 C :   -0.194906
   2 C :   -0.174228
   3 Br:   -0.206341
   4 H :    0.143049
   5 H :    0.131407
   6 H :    0.133126
   7 H :    0.121684
   8 H :    0.121767
   9 H :    0.147128
  10 H :    0.160083
  11 Br:   -0.964191
Sum of atomic charges:   -1.0000000

LOEWDIN ATOMIC CHARGES
----------------------
   0 C :   -0.320722
   1 C :   -0.338054
   2 C :   -0.463918
   3 Br:    0.166169
   4 H :    0.126325
   5 H :    0.121800
   6 H :    0.124637
   7 H :    0.139473
   8 H :    0.138669
   9 H :    0.113508
  10 H :    0.134271
  11 Br:   -0.942158

  Mayer bond orders larger than 0.100000
B(  0-C ,  1-C ) :   0.9082 B(  0-C ,  4-H ) :   0.9230 B(  0-C ,  5-H ) :   0.9209
B(  0-C ,  6-H ) :   0.9223 B(  1-C ,  2-C ) :   0.9342 B(  1-C ,  7-H ) :   0.9147
B(  1-C ,  8-H ) :   0.9166 B(  2-C ,  3-Br) :   0.8803 B(  2-C ,  9-H ) :   0.9004
B(  2-C , 10-H ) :   0.9124

FINAL SINGLE POINT ENERGY     -5263.895186037080

DIPOLE MOMENT
-------------
                                X             Y             Z
Electronic contribution:     22.03130      -6.42357       3.26852
Nuclear contribution   :    -23.27717       8.36300      -7.06623
                        -----------------------------------------
Total Dipole Moment    :     -1.24586       1.93943      -3.79771
                        -----------------------------------------
Magnitude (a.u.)       :      4.44254
Magnitude (Debye)      :     11.29204

Rotational constants in cm-1:     0.061837     0.016881     0.013477
Rotational constants in MHz :  1853.840955   506.067856   404.043680

                             ****ORCA TERMINATED NORMALLY****
TOTAL RUN TIME: 0 days 0 hours 14 minutes 31 seconds 676 msec
