                         Program Version 4.2.1 -  RELEASE  -
|  1> ! SP CCSD(T) def2-TZVP CPCM(Acetone)
|  2> %cpcm
|  3> surfacetype vdw_gaussian
|  4> end
|  5> %geom MaxIter 100 end
|  6> %output
|  7> xyzfile=True
|  8> end
|  9> %scf
| 10> maxiter 250
| 11> end
| 12> %output
| 13> Print[P_Hirshfeld] = 1
| 14> end
| 15> % maxcore
| 16> 4000
| 17> %pal nprocs 4
| 18> end
| 19> *xyz -1 1
| 20>   C   -0.96627600837687      0.77491043313378     -2.34534068571402
| 21>   Br  -1.67541206703322     -0.98924809414325     -1.96583047749147
| 22>   H   -1.23147942200114      1.42570172821614     -1.50620289870733
| 23>   H   -1.41411626918291      1.12212640844627     -3.28222603917276
| 24>   H   0.12202883980846      0.68473373992932     -2.42775999089178
| 25>   I   1.06618492678568      0.61553578441774      1.22502009197736
| 26> *
| 27>
| 28>                          ****END OF INPUT****

CARTESIAN COORDINATES (ANGSTROEM)
---------------------------------
  C     -0.966276    0.774910   -2.345341
  Br    -1.675412   -0.989248   -1.965830
  H     -1.231479    1.425702   -1.506203
  H     -1.414116    1.122126   -3.282226
  H      0.122029    0.684734   -2.427760
  I      1.066185    0.615536    1.225020

 Total Charge           Charge          ....   -1
 Multiplicity           Mult            ....    1
 Number of Electrons    NEL             ....   70
 Basis Dimension        Dim             ....  147

ORBITAL ENERGIES
----------------

  NO   OCC          E(Eh)            E(eV)
   0   2.0000    -490.004736    -13333.7067
   1   2.0000     -65.147308     -1772.7484
   2   2.0000     -58.502479     -1591.9334
   3   2.0000     -58.501200     -1591.8986
   4   2.0000     -58.501191     -1591.8983
   5   2.0000     -11.272474      -306.7396
   6   2.0000      -9.820915      -267.2407
   7   2.0000      -7.645023      -208.0316
   8   2.0000      -7.432701      -202.2541
   9   2.0000      -7.426555      -202.0868
  10   2.0000      -7.426515      -202.0857
  11   2.0000      -5.493341      -149.4814
  12   2.0000      -5.493318      -149.4808
  13   2.0000      -5.493176      -149.4769
  14   2.0000      -3.175187       -86.4012
  15   2.0000      -3.172039       -86.3156
  16   2.0000      -3.171983       -86.3140
  17   2.0000      -3.164195       -86.1021
  18   2.0000      -3.164195       -86.1021
  19   2.0000      -2.187344       -59.5206
  20   2.0000      -2.187343       -59.5206
  21   2.0000      -2.187187       -59.5164
  22   2.0000      -2.187162       -59.5157
  23   2.0000      -2.187119       -59.5145
  24   2.0000      -1.049957       -28.5708
  25   2.0000      -0.880755       -23.9666
  26   2.0000      -0.794073       -21.6078
  27   2.0000      -0.592189       -16.1143
  28   2.0000      -0.589020       -16.0280
  29   2.0000      -0.495387       -13.4802
  30   2.0000      -0.398980       -10.8568
  31   2.0000      -0.398235       -10.8365
  32   2.0000      -0.313654        -8.5350
  33   2.0000      -0.313431        -8.5289
  34   2.0000      -0.312476        -8.5029
  35   0.0000       0.142600         3.8804
  36   0.0000       0.188154         5.1199
  37   0.0000       0.221802         6.0355
  38   0.0000       0.226443         6.1618
  39   0.0000       0.276785         7.5317

E(0)                                       ...  -2908.883971984
E(0)                                       ...  -2908.883971984
E(CORR)                                    ...     -0.947325335
E(TOT)                                     ...  -2909.831297319
E(CCSD(T))                                 ...  -2909.856593039

MULLIKEN ATOMIC CHARGES
-----------------------
   0 C :   -0.363050
   1 Br:   -0.168163
   2 H :    0.173964
   3 H :    0.179027
   4 H :    0.173509
   5 I :   -0.995288
Sum of atomic charges:   -1.0000000

LOEWDIN ATOMIC CHARGES
----------------------
   0 C :   -0.523907
   1 Br:    0.153179
   2 H :    0.114980
   3 H :    0.117195
   4 H :    0.116336
   5 I :   -0.977783

  Mayer bond orders larger than 0.100000
B(  0-C ,  1-Br) :   0.9157 B(  0-C ,  2-H ) :   0.9106 B(  0-C ,  3-H ) :   0.9090
B(  0-C ,  4-H ) :   0.9114

FINAL SINGLE POINT ENERGY     -2909.856593038746

DIPOLE MOMENT
-------------
                                X             Y             Z
Electronic contribution:     66.94165      28.14119      87.77677
Nuclear contribution   :    -68.69293     -28.29428     -90.59350
                        -----------------------------------------
Total Dipole Moment    :     -1.75128      -0.15308      -2.81672
                        -----------------------------------------
Magnitude (a.u.)       :      3.32030
Magnitude (Debye)      :      8.43952

Rotational constants in cm-1:     0.362036     0.016017     0.015384
Rotational constants in MHz : 10853.562315   480.179651   461.202284

                             ****ORCA TERMINATED NORMALLY****
TOTAL RUN TIME: 0 days 0 hours 1 minutes 46 seconds 450 msec
