                         Program Version 4.2.1 -  RELEASE  -
|  1> ! SP CCSD(T) def2-TZVP CPCM(DMF)
|  2> %cpcm
|  3> surfacetype vdw_gaussian
|  4> end
|  5> %geom MaxIter 100 end
|  6> %output
|  7> xyzfile=True
|  8> end
|  9> %scf
| 10> maxiter 250
| 11> end
| 12> %output
| 13> Print[P_Hirshfeld] = 1
| 14> end
| 15> % maxcore
| 16> 4000
| 17> %pal nprocs 4
| 18> end
| 19> *xyz -1 1
| 20>   C   1.08703910089457     -0.61784529525553      1.12929323184767
| 21>   C   0.23916291012256     -0.59829919346874     -0.14774930609674
| 22>   C   1.14814828236460     -0.54186383417019     -1.37441447520342
| 23>   C   -0.62638661892706     -1.85681921693171     -0.19686196900493
| 24>   C   -0.61780478366297      0.66120317862737     -0.05148566580328
| 25>   Br  -1.77775488010328      0.97731595768148     -1.60620328159362
| 26>   H   0.46500088356725     -0.65796710296079      2.03657234548968
| 27>   H   1.74497031887200     -1.49876375691643      1.15895856709314
| 28>   H   1.73651928574639      0.26693841362250      1.21330950240572
| 29>   H   0.55915656626229     -0.55418852027227     -2.30436636246015
| 30>   H   1.82626187551327     -1.40933311524485     -1.38930099330721
| 31>   H   1.76379853918479      0.37226445750129     -1.37241139795702
| 32>   H   -1.26564730004883     -1.87014248399097     -1.09355967936359
| 33>   H   -1.27843056324233     -1.92829166041840      0.68882326567781
| 34>   H   0.01403904077846     -2.75282048476135     -0.22068989677533
| 35>   H   -1.30259173264883      0.62216239124371      0.80639722629980
| 36>   H   0.00472859222943      1.56275730820773      0.02447479812327
| 37>   Cl  3.18107048309771     -1.13791704249283      3.90307409062819
| 38> *
| 39>
| 40>                          ****END OF INPUT****

CARTESIAN COORDINATES (ANGSTROEM)
---------------------------------
  C      1.087039   -0.617845    1.129293
  C      0.239163   -0.598299   -0.147749
  C      1.148148   -0.541864   -1.374414
  C     -0.626387   -1.856819   -0.196862
  C     -0.617805    0.661203   -0.051486
  Br    -1.777755    0.977316   -1.606203
  H      0.465001   -0.657967    2.036572
  H      1.744970   -1.498764    1.158959
  H      1.736519    0.266938    1.213310
  H      0.559157   -0.554189   -2.304366
  H      1.826262   -1.409333   -1.389301
  H      1.763799    0.372264   -1.372411
  H     -1.265647   -1.870142   -1.093560
  H     -1.278431   -1.928292    0.688823
  H      0.014039   -2.752820   -0.220690
  H     -1.302592    0.622162    0.806397
  H      0.004729    1.562757    0.024475
  Cl     3.181070   -1.137917    3.903074

 Total Charge           Charge          ....   -1
 Multiplicity           Mult            ....    1
 Number of Electrons    NEL             ....   94
 Basis Dimension        Dim             ....  306

ORBITAL ENERGIES
----------------

  NO   OCC          E(Eh)            E(eV)
   0   2.0000    -490.003070    -13333.6614
   1   2.0000    -104.707233     -2849.2287
   2   2.0000     -65.145586     -1772.7015
   3   2.0000     -58.500711     -1591.8853
   4   2.0000     -58.499523     -1591.8529
   5   2.0000     -58.499515     -1591.8527
   6   2.0000     -11.278297      -306.8981
   7   2.0000     -11.236365      -305.7570
   8   2.0000     -11.206618      -304.9476
   9   2.0000     -11.206288      -304.9386
  10   2.0000     -11.204185      -304.8814
  11   2.0000     -10.434485      -283.9368
  12   2.0000      -9.818929      -267.1866
  13   2.0000      -7.901054      -214.9986
  14   2.0000      -7.901054      -214.9986
  15   2.0000      -7.901032      -214.9980
  16   2.0000      -7.430450      -202.1928
  17   2.0000      -7.424750      -202.0377
  18   2.0000      -7.424686      -202.0360
  19   2.0000      -3.172814       -86.3367
  20   2.0000      -3.169878       -86.2568
  21   2.0000      -3.169834       -86.2556
  22   2.0000      -3.162558       -86.0576
  23   2.0000      -3.162552       -86.0574
  24   2.0000      -1.120139       -30.4805
  25   2.0000      -1.022107       -27.8129
  26   2.0000      -0.947824       -25.7916
  27   2.0000      -0.925195       -25.1758
  28   2.0000      -0.924257       -25.1503
  29   2.0000      -0.882676       -24.0188
  30   2.0000      -0.730122       -19.8676
  31   2.0000      -0.627954       -17.0875
  32   2.0000      -0.619751       -16.8643
  33   2.0000      -0.594585       -16.1795
  34   2.0000      -0.562627       -15.3099
  35   2.0000      -0.537786       -14.6339
  36   2.0000      -0.517339       -14.0775
  37   2.0000      -0.503303       -13.6956
  38   2.0000      -0.492992       -13.4150
  39   2.0000      -0.474384       -12.9086
  40   2.0000      -0.458625       -12.4798
  41   2.0000      -0.444923       -12.1070
  42   2.0000      -0.397174       -10.8077
  43   2.0000      -0.396890       -10.7999
  44   2.0000      -0.366666        -9.9775
  45   2.0000      -0.366574        -9.9750
  46   2.0000      -0.363624        -9.8947
  47   0.0000       0.135677         3.6920
  48   0.0000       0.157313         4.2807
  49   0.0000       0.194137         5.2827
  50   0.0000       0.198559         5.4031
  51   0.0000       0.200951         5.4682

E(0)                                       ...  -3227.911145405
E(0)                                       ...  -3227.911145405
E(CORR)                                    ...     -1.412714472
E(TOT)                                     ...  -3229.323859877
E(CCSD(T))                                 ...  -3229.378320521

MULLIKEN ATOMIC CHARGES
-----------------------
   0 C :   -0.435302
   1 C :    0.132323
   2 C :   -0.443375
   3 C :   -0.444318
   4 C :   -0.213592
   5 Br:   -0.205115
   6 H :    0.127760
   7 H :    0.128893
   8 H :    0.127977
   9 H :    0.141763
  10 H :    0.142040
  11 H :    0.140056
  12 H :    0.140748
  13 H :    0.140238
  14 H :    0.142461
  15 H :    0.174895
  16 H :    0.176140
  17 Cl:   -0.973593
Sum of atomic charges:   -1.0000000

LOEWDIN ATOMIC CHARGES
----------------------
   0 C :   -0.290605
   1 C :   -0.398996
   2 C :   -0.281230
   3 C :   -0.279294
   4 C :   -0.406533
   5 Br:    0.184027
   6 H :    0.124987
   7 H :    0.124531
   8 H :    0.124831
   9 H :    0.122445
  10 H :    0.130241
  11 H :    0.129611
  12 H :    0.122683
  13 H :    0.129475
  14 H :    0.130979
  15 H :    0.141787
  16 H :    0.142109
  17 Cl:   -0.951048

  Mayer bond orders larger than 0.100000
B(  0-C ,  1-C ) :   0.8942 B(  0-C ,  6-H ) :   0.9210 B(  0-C ,  7-H ) :   0.9207
B(  0-C ,  8-H ) :   0.9207 B(  1-C ,  2-C ) :   0.8974 B(  1-C ,  3-C ) :   0.8987
B(  1-C ,  4-C ) :   0.8998 B(  2-C ,  9-H ) :   0.9173 B(  2-C , 10-H ) :   0.9223
B(  2-C , 11-H ) :   0.9210 B(  3-C , 12-H ) :   0.9168 B(  3-C , 13-H ) :   0.9207
B(  3-C , 14-H ) :   0.9235 B(  4-C ,  5-Br) :   0.8754 B(  4-C , 15-H ) :   0.9092
B(  4-C , 16-H ) :   0.9090

FINAL SINGLE POINT ENERGY     -3229.378320520629

DIPOLE MOMENT
-------------
                                X             Y             Z
Electronic contribution:    -21.50577      16.68909     -15.62377
Nuclear contribution   :     16.22398     -14.91859       9.25411
                        -----------------------------------------
Total Dipole Moment    :     -5.28179       1.77051      -6.36966
                        -----------------------------------------
Magnitude (a.u.)       :      8.46195
Magnitude (Debye)      :     21.50857

Rotational constants in cm-1:     0.107018     0.010698     0.010408
Rotational constants in MHz :  3208.325919   320.707515   312.018805

                             ****ORCA TERMINATED NORMALLY****
TOTAL RUN TIME: 0 days 1 hours 21 minutes 33 seconds 289 msec
