                         Program Version 4.2.1 -  RELEASE  -
|  1> ! SP CCSD(T) def2-TZVP CPCM(Acetone)
|  2> %cpcm
|  3> surfacetype vdw_gaussian
|  4> end
|  5> %geom MaxIter 100 end
|  6> %output
|  7> xyzfile=True
|  8> end
|  9> %scf
| 10> maxiter 250
| 11> end
| 12> %output
| 13> Print[P_Hirshfeld] = 1
| 14> end
| 15> % maxcore
| 16> 4000
| 17> %pal nprocs 4
| 18> end
| 19> *xyz -1 1
| 20>   C   -1.72225423972797     -0.43060317531096     -0.59617525498761
| 21>   C   -0.23568444963270     -0.65754339910671     -0.54696512101846
| 22>   Br  0.75801552450217      0.97306815406782     -1.01652721003859
| 23>   H   -2.22892441760429     -1.37269563672509     -0.33055711517932
| 24>   H   -2.03414550915918      0.32689520099230      0.13654446435225
| 25>   H   -2.06131791363200     -0.11974112724272     -1.59531506927116
| 26>   H   0.10744716350727     -1.41171070762745     -1.26527914814838
| 27>   H   0.09434173493088     -0.93117137579165      0.46505641525359
| 28>   Br  -0.88491789318418     -1.67360793325553      3.10510803903768
| 29> *
| 30>
| 31>                          ****END OF INPUT****

CARTESIAN COORDINATES (ANGSTROEM)
---------------------------------
  C     -1.722254   -0.430603   -0.596175
  C     -0.235684   -0.657543   -0.546965
  Br     0.758016    0.973068   -1.016527
  H     -2.228924   -1.372696   -0.330557
  H     -2.034146    0.326895    0.136544
  H     -2.061318   -0.119741   -1.595315
  H      0.107447   -1.411711   -1.265279
  H      0.094342   -0.931171    0.465056
  Br    -0.884918   -1.673608    3.105108

 Total Charge           Charge          ....   -1
 Multiplicity           Mult            ....    1
 Number of Electrons    NEL             ....   88
 Basis Dimension        Dim             ....  188

ORBITAL ENERGIES
----------------

  NO   OCC          E(Eh)            E(eV)
   0   2.0000    -490.000229    -13333.5841
   1   2.0000    -489.910172    -13331.1335
   2   2.0000     -65.142848     -1772.6270
   3   2.0000     -65.053404     -1770.1931
   4   2.0000     -58.497947     -1591.8101
   5   2.0000     -58.496778     -1591.7783
   6   2.0000     -58.496769     -1591.7780
   7   2.0000     -58.407789     -1589.3568
   8   2.0000     -58.407787     -1589.3567
   9   2.0000     -58.407767     -1589.3562
  10   2.0000     -11.276647      -306.8532
  11   2.0000     -11.217581      -305.2459
  12   2.0000      -9.816328      -267.1159
  13   2.0000      -9.726798      -264.6796
  14   2.0000      -7.427787      -202.1204
  15   2.0000      -7.422157      -201.9672
  16   2.0000      -7.422106      -201.9658
  17   2.0000      -7.334825      -199.5907
  18   2.0000      -7.334816      -199.5905
  19   2.0000      -7.334737      -199.5883
  20   2.0000      -3.170115       -86.2632
  21   2.0000      -3.167231       -86.1847
  22   2.0000      -3.167197       -86.1838
  23   2.0000      -3.160032       -85.9888
  24   2.0000      -3.160025       -85.9886
  25   2.0000      -3.075594       -83.6912
  26   2.0000      -3.075593       -83.6912
  27   2.0000      -3.075475       -83.6879
  28   2.0000      -3.075457       -83.6874
  29   2.0000      -3.075421       -83.6865
  30   2.0000      -1.071547       -29.1583
  31   2.0000      -0.959495       -26.1092
  32   2.0000      -0.887299       -24.1446
  33   2.0000      -0.817342       -22.2410
  34   2.0000      -0.626943       -17.0600
  35   2.0000      -0.582213       -15.8428
  36   2.0000      -0.539881       -14.6909
  37   2.0000      -0.505543       -13.7565
  38   2.0000      -0.460498       -12.5308
  39   2.0000      -0.397339       -10.8121
  40   2.0000      -0.396452       -10.7880
  41   2.0000      -0.342507        -9.3201
  42   2.0000      -0.342343        -9.3156
  43   2.0000      -0.340584        -9.2678
  44   0.0000       0.148923         4.0524
  45   0.0000       0.170581         4.6417
  46   0.0000       0.200344         5.4516
  47   0.0000       0.227323         6.1858
  48   0.0000       0.229744         6.2517

E(0)                                       ...  -5223.685940906
E(0)                                       ...  -5223.685940906
E(CORR)                                    ...     -0.941492652
E(TOT)                                     ...  -5224.627433558
E(CCSD(T))                                 ...  -5224.659848618

MULLIKEN ATOMIC CHARGES
-----------------------
   0 C :   -0.385804
   1 C :   -0.166303
   2 Br:   -0.208026
   3 H :    0.141328
   4 H :    0.137279
   5 H :    0.141266
   6 H :    0.160038
   7 H :    0.153362
   8 Br:   -0.973142
Sum of atomic charges:   -1.0000000

LOEWDIN ATOMIC CHARGES
----------------------
   0 C :   -0.359020
   1 C :   -0.482496
   2 Br:    0.154852
   3 H :    0.133511
   4 H :    0.125527
   5 H :    0.124594
   6 H :    0.132212
   7 H :    0.119148
   8 Br:   -0.948327

  Mayer bond orders larger than 0.100000
B(  0-C ,  1-C ) :   0.9380 B(  0-C ,  3-H ) :   0.9078 B(  0-C ,  4-H ) :   0.9183
B(  0-C ,  5-H ) :   0.9160 B(  1-C ,  2-Br) :   0.8830 B(  1-C ,  6-H ) :   0.9130
B(  1-C ,  7-H ) :   0.9032

FINAL SINGLE POINT ENERGY     -5224.659848617730

DIPOLE MOMENT
-------------
                                X             Y             Z
Electronic contribution:      8.11142       3.58257       6.77994
Nuclear contribution   :     -7.49267      -2.12073     -10.75924
                        -----------------------------------------
Total Dipole Moment    :      0.61876       1.46184      -3.97930
                        -----------------------------------------
Magnitude (a.u.)       :      4.28423
Magnitude (Debye)      :     10.88965

Rotational constants in cm-1:     0.186780     0.015329     0.014431
Rotational constants in MHz :  5599.537532   459.556750   432.621522

                             ****ORCA TERMINATED NORMALLY****
TOTAL RUN TIME: 0 days 0 hours 5 minutes 20 seconds 476 msec
