                         Program Version 4.2.1 -  RELEASE  -
|  1> ! SP CCSD(T) def2-TZVP CPCM(Acetone)
|  2> %cpcm
|  3> surfacetype vdw_gaussian
|  4> end
|  5> %geom MaxIter 100 end
|  6> %output
|  7> xyzfile=True
|  8> end
|  9> %scf
| 10> maxiter 250
| 11> end
| 12> %output
| 13> Print[P_Hirshfeld] = 1
| 14> end
| 15> % maxcore
| 16> 4000
| 17> %pal nprocs 4
| 18> end
| 19> *xyz -1 1
| 20>   C   -2.75363457998359      0.29891389448776      0.68756920871954
| 21>   C   -1.75432579734293      0.19337747110284     -0.45601846113805
| 22>   C   -0.37546746179491      0.61887096363067     -0.00622999821366
| 23>   Br  0.95369677298775      0.30792368156749     -1.41782210437070
| 24>   H   -3.73364089105380     -0.09825978258097      0.38067143964849
| 25>   H   -2.38395290098653     -0.26869413594546      1.55658189769508
| 26>   H   -2.89654113191209      1.34448427381389      1.00494577798537
| 27>   H   -1.70553778076171     -0.85062150148346     -0.80707925103905
| 28>   H   -2.07576318783343      0.79985291843412     -1.31900330162960
| 29>   H   -0.03910414355461      0.04147099049151      0.87146246613800
| 30>   H   -0.31515433857997      1.69370016071346      0.21433951668242
| 31>   Cl  -0.16115455918415     -1.16584893423184      3.00515280952215
| 32> *
| 33>
| 34>                          ****END OF INPUT****

CARTESIAN COORDINATES (ANGSTROEM)
---------------------------------
  C     -2.753635    0.298914    0.687569
  C     -1.754326    0.193377   -0.456018
  C     -0.375467    0.618871   -0.006230
  Br     0.953697    0.307924   -1.417822
  H     -3.733641   -0.098260    0.380671
  H     -2.383953   -0.268694    1.556582
  H     -2.896541    1.344484    1.004946
  H     -1.705538   -0.850622   -0.807079
  H     -2.075763    0.799853   -1.319003
  H     -0.039104    0.041471    0.871462
  H     -0.315154    1.693700    0.214340
  Cl    -0.161155   -1.165849    3.005153

 Total Charge           Charge          ....   -1
 Multiplicity           Mult            ....    1
 Number of Electrons    NEL             ....   78
 Basis Dimension        Dim             ....  220

ORBITAL ENERGIES
----------------

  NO   OCC          E(Eh)            E(eV)
   0   2.0000    -489.998100    -13333.5262
   1   2.0000    -104.704709     -2849.1600
   2   2.0000     -65.140711     -1772.5689
   3   2.0000     -58.495800     -1591.7517
   4   2.0000     -58.494655     -1591.7205
   5   2.0000     -58.494647     -1591.7203
   6   2.0000     -11.267752      -306.6111
   7   2.0000     -11.219463      -305.2971
   8   2.0000     -11.203913      -304.8740
   9   2.0000     -10.432443      -283.8812
  10   2.0000      -9.814180      -267.0574
  11   2.0000      -7.898962      -214.9417
  12   2.0000      -7.898941      -214.9411
  13   2.0000      -7.898941      -214.9411
  14   2.0000      -7.425601      -202.0609
  15   2.0000      -7.420053      -201.9099
  16   2.0000      -7.420002      -201.9085
  17   2.0000      -3.167911       -86.2033
  18   2.0000      -3.165061       -86.1257
  19   2.0000      -3.165027       -86.1248
  20   2.0000      -3.157966       -85.9326
  21   2.0000      -3.157959       -85.9324
  22   2.0000      -1.081359       -29.4253
  23   2.0000      -0.996950       -27.1284
  24   2.0000      -0.947356       -25.7789
  25   2.0000      -0.880640       -23.9634
  26   2.0000      -0.791776       -21.5453
  27   2.0000      -0.637966       -17.3599
  28   2.0000      -0.579290       -15.7633
  29   2.0000      -0.548562       -14.9271
  30   2.0000      -0.545187       -14.8353
  31   2.0000      -0.488151       -13.2833
  32   2.0000      -0.470031       -12.7902
  33   2.0000      -0.454481       -12.3671
  34   2.0000      -0.396279       -10.7833
  35   2.0000      -0.393873       -10.7178
  36   2.0000      -0.365091        -9.9346
  37   2.0000      -0.363781        -9.8990
  38   2.0000      -0.357585        -9.7304
  39   0.0000       0.144480         3.9315
  40   0.0000       0.177070         4.8183
  41   0.0000       0.195420         5.3176
  42   0.0000       0.198839         5.4107
  43   0.0000       0.224948         6.1211

E(0)                                       ...  -3149.813577276
E(0)                                       ...  -3149.813577276
E(CORR)                                    ...     -1.048194893
E(TOT)                                     ...  -3150.861772169
E(CCSD(T))                                 ...  -3150.900755270

MULLIKEN ATOMIC CHARGES
-----------------------
   0 C :   -0.419370
   1 C :   -0.192654
   2 C :   -0.176688
   3 Br:   -0.216534
   4 H :    0.137851
   5 H :    0.130425
   6 H :    0.127338
   7 H :    0.116961
   8 H :    0.119047
   9 H :    0.149578
  10 H :    0.155362
  11 Cl:   -0.931316
Sum of atomic charges:   -1.0000000

LOEWDIN ATOMIC CHARGES
----------------------
   0 C :   -0.329085
   1 C :   -0.341228
   2 C :   -0.466485
   3 Br:    0.156407
   4 H :    0.123903
   5 H :    0.114546
   6 H :    0.122488
   7 H :    0.138518
   8 H :    0.136242
   9 H :    0.112154
  10 H :    0.132439
  11 Cl:   -0.899897

  Mayer bond orders larger than 0.100000
B(  0-C ,  1-C ) :   0.9048 B(  0-C ,  4-H ) :   0.9226 B(  0-C ,  5-H ) :   0.9134
B(  0-C ,  6-H ) :   0.9233 B(  1-C ,  2-C ) :   0.9319 B(  1-C ,  7-H ) :   0.9156
B(  1-C ,  8-H ) :   0.9179 B(  2-C ,  3-Br) :   0.8717 B(  2-C ,  9-H ) :   0.8929
B(  2-C , 10-H ) :   0.9112

FINAL SINGLE POINT ENERGY     -3150.900755269902

DIPOLE MOMENT
-------------
                                X             Y             Z
Electronic contribution:     20.49832       1.01345     -15.49355
Nuclear contribution   :    -21.01197       1.18516      10.86099
                        -----------------------------------------
Total Dipole Moment    :     -0.51365       2.19861      -4.63256
                        -----------------------------------------
Magnitude (a.u.)       :      5.15347
Magnitude (Debye)      :     13.09909

Rotational constants in cm-1:     0.083294     0.027603     0.021274
Rotational constants in MHz :  2497.086347   827.525145   637.783977

                             ****ORCA TERMINATED NORMALLY****
TOTAL RUN TIME: 0 days 0 hours 7 minutes 52 seconds 197 msec
