                         Program Version 4.2.1 -  RELEASE  -
|  1> ! SP CCSD(T) def2-TZVP CPCM(Acetone)
|  2> %cpcm
|  3> surfacetype vdw_gaussian
|  4> end
|  5> %geom MaxIter 100 end
|  6> %output
|  7> xyzfile=True
|  8> end
|  9> %scf
| 10> maxiter 250
| 11> end
| 12> %output
| 13> Print[P_Hirshfeld] = 1
| 14> end
| 15> % maxcore
| 16> 4000
| 17> %pal nprocs 4
| 18> end
| 19> *xyz -1 1
| 20>   C   -0.61108554176992     -1.90249414589183      0.55494595273581
| 21>   C   -1.37841775324750     -1.04775266750953     -0.45318454490537
| 22>   C   -2.05742934635369      0.12093870145648      0.25888003679094
| 23>   C   -2.44118206386911     -1.90605156219998     -1.15290204663041
| 24>   C   -0.46229204020463     -0.55309718998576     -1.57049086949790
| 25>   Br  1.00294538938316      0.61066976669421     -0.98235235066098
| 26>   H   -0.08241866324401     -2.72997737426736      0.05533746475356
| 27>   H   -1.30803120363562     -2.33650657672195      1.28936846085394
| 28>   H   0.12480798822772     -1.30068320638508      1.10990699698411
| 29>   H   -2.59855694391767      0.76269462546613     -0.45560262348556
| 30>   H   -2.78329163944189     -0.25699384339277      0.99589190896292
| 31>   H   -1.32343503744666      0.73942144353444      0.79802700530080
| 32>   H   -1.98409899213694     -2.75454955972489     -1.68601762793028
| 33>   H   -3.14595057362930     -2.31052543882069     -0.40972196089222
| 34>   H   -3.01799082420076     -1.31215181322623     -1.88018477015494
| 35>   H   0.02987171685988     -1.39045121992434     -2.08264438844943
| 36>   H   -1.01758317502325      0.04724751256440     -2.30303408342632
| 37>   Br  0.78053870365019      0.98354254833478      3.44395743965134
| 38> *
| 39>
| 40>                          ****END OF INPUT****

CARTESIAN COORDINATES (ANGSTROEM)
---------------------------------
  C     -0.611086   -1.902494    0.554946
  C     -1.378418   -1.047753   -0.453185
  C     -2.057429    0.120939    0.258880
  C     -2.441182   -1.906052   -1.152902
  C     -0.462292   -0.553097   -1.570491
  Br     1.002945    0.610670   -0.982352
  H     -0.082419   -2.729977    0.055337
  H     -1.308031   -2.336507    1.289368
  H      0.124808   -1.300683    1.109907
  H     -2.598557    0.762695   -0.455603
  H     -2.783292   -0.256994    0.995892
  H     -1.323435    0.739421    0.798027
  H     -1.984099   -2.754550   -1.686018
  H     -3.145951   -2.310525   -0.409722
  H     -3.017991   -1.312152   -1.880185
  H      0.029872   -1.390451   -2.082644
  H     -1.017583    0.047248   -2.303034
  Br     0.780539    0.983543    3.443957

 Total Charge           Charge          ....   -1
 Multiplicity           Mult            ....    1
 Number of Electrons    NEL             ....  112
 Basis Dimension        Dim             ....  317

ORBITAL ENERGIES
----------------

  NO   OCC          E(Eh)            E(eV)
   0   2.0000    -489.999139    -13333.5544
   1   2.0000    -489.909166    -13331.1061
   2   2.0000     -65.141660     -1772.5947
   3   2.0000     -65.052366     -1770.1649
   4   2.0000     -58.496794     -1591.7787
   5   2.0000     -58.495580     -1591.7457
   6   2.0000     -58.495580     -1591.7457
   7   2.0000     -58.406753     -1589.3285
   8   2.0000     -58.406751     -1589.3285
   9   2.0000     -58.406734     -1589.3280
  10   2.0000     -11.275420      -306.8198
  11   2.0000     -11.235483      -305.7330
  12   2.0000     -11.208912      -305.0100
  13   2.0000     -11.202731      -304.8418
  14   2.0000     -11.202671      -304.8402
  15   2.0000      -9.815035      -267.0807
  16   2.0000      -9.725739      -264.6508
  17   2.0000      -7.426609      -202.0883
  18   2.0000      -7.420801      -201.9303
  19   2.0000      -7.420771      -201.9294
  20   2.0000      -7.333761      -199.5618
  21   2.0000      -7.333752      -199.5616
  22   2.0000      -7.333679      -199.5595
  23   2.0000      -3.168998       -86.2328
  24   2.0000      -3.165993       -86.1511
  25   2.0000      -3.165990       -86.1510
  26   2.0000      -3.158584       -85.9494
  27   2.0000      -3.158579       -85.9493
  28   2.0000      -3.074523       -83.6620
  29   2.0000      -3.074523       -83.6620
  30   2.0000      -3.074415       -83.6591
  31   2.0000      -3.074412       -83.6590
  32   2.0000      -3.074378       -83.6581
  33   2.0000      -1.118563       -30.4376
  34   2.0000      -1.020055       -27.7571
  35   2.0000      -0.925452       -25.1828
  36   2.0000      -0.921416       -25.0730
  37   2.0000      -0.886021       -24.1099
  38   2.0000      -0.880766       -23.9669
  39   2.0000      -0.727579       -19.7984
  40   2.0000      -0.627210       -17.0672
  41   2.0000      -0.617580       -16.8052
  42   2.0000      -0.592506       -16.1229
  43   2.0000      -0.562211       -15.2985
  44   2.0000      -0.539434       -14.6787
  45   2.0000      -0.514329       -13.9956
  46   2.0000      -0.503294       -13.6953
  47   2.0000      -0.491001       -13.3608
  48   2.0000      -0.473899       -12.8955
  49   2.0000      -0.457142       -12.4395
  50   2.0000      -0.441679       -12.0187
  51   2.0000      -0.393945       -10.7198
  52   2.0000      -0.393334       -10.7032
  53   2.0000      -0.341247        -9.2858
  54   2.0000      -0.341041        -9.2802
  55   2.0000      -0.339476        -9.2376
  56   0.0000       0.137351         3.7375
  57   0.0000       0.164693         4.4815
  58   0.0000       0.194836         5.3017
  59   0.0000       0.197789         5.3821
  60   0.0000       0.201302         5.4777

E(0)                                       ...  -5340.826455456
E(0)                                       ...  -5340.826455456
E(CORR)                                    ...     -1.488622936
E(TOT)                                     ...  -5342.315078392
E(CCSD(T))                                 ...  -5342.370840830

MULLIKEN ATOMIC CHARGES
-----------------------
   0 C :   -0.444432
   1 C :    0.107323
   2 C :   -0.443940
   3 C :   -0.442320
   4 C :   -0.214050
   5 Br:   -0.199379
   6 H :    0.137792
   7 H :    0.139842
   8 H :    0.140765
   9 H :    0.137716
  10 H :    0.139856
  11 H :    0.140952
  12 H :    0.142662
  13 H :    0.145324
  14 H :    0.142662
  15 H :    0.173175
  16 H :    0.172743
  17 Br:   -0.976692
Sum of atomic charges:   -1.0000000

LOEWDIN ATOMIC CHARGES
----------------------
   0 C :   -0.282230
   1 C :   -0.398091
   2 C :   -0.282631
   3 C :   -0.269252
   4 C :   -0.412635
   5 Br:    0.188914
   6 H :    0.128449
   7 H :    0.130528
   8 H :    0.117507
   9 H :    0.128618
  10 H :    0.130460
  11 H :    0.117975
  12 H :    0.129238
  13 H :    0.131415
  14 H :    0.129399
  15 H :    0.141087
  16 H :    0.141151
  17 Br:   -0.969902

  Mayer bond orders larger than 0.100000
B(  0-C ,  1-C ) :   0.9030 B(  0-C ,  6-H ) :   0.9200 B(  0-C ,  7-H ) :   0.9226
B(  0-C ,  8-H ) :   0.9143 B(  1-C ,  2-C ) :   0.9034 B(  1-C ,  3-C ) :   0.8933
B(  1-C ,  4-C ) :   0.9031 B(  2-C ,  9-H ) :   0.9198 B(  2-C , 10-H ) :   0.9226
B(  2-C , 11-H ) :   0.9146 B(  3-C , 12-H ) :   0.9195 B(  3-C , 13-H ) :   0.9207
B(  3-C , 14-H ) :   0.9193 B(  4-C ,  5-Br) :   0.8814 B(  4-C , 15-H ) :   0.9097
B(  4-C , 16-H ) :   0.9098

FINAL SINGLE POINT ENERGY     -5342.370840829617

DIPOLE MOMENT
-------------
                                X             Y             Z
Electronic contribution:     29.12160      22.93972      16.01273
Nuclear contribution   :    -31.11638     -25.03200     -21.29439
                        -----------------------------------------
Total Dipole Moment    :     -1.99477      -2.09228      -5.28165
                        -----------------------------------------
Magnitude (a.u.)       :      6.02102
Magnitude (Debye)      :     15.30421

Rotational constants in cm-1:     0.038975     0.014589     0.011435
Rotational constants in MHz :  1168.432498   437.367788   342.806249

                             ****ORCA TERMINATED NORMALLY****
TOTAL RUN TIME: 0 days 1 hours 20 minutes 51 seconds 816 msec
