                         Program Version 4.2.1 -  RELEASE  -
|  1> ! SP CCSD(T) def2-TZVP CPCM(Acetone)
|  2> %cpcm
|  3> surfacetype vdw_gaussian
|  4> end
|  5> %geom MaxIter 100 end
|  6> %output
|  7> xyzfile=True
|  8> end
|  9> %scf
| 10> maxiter 250
| 11> end
| 12> %output
| 13> Print[P_Hirshfeld] = 1
| 14> end
| 15> % maxcore
| 16> 4000
| 17> %pal nprocs 4
| 18> end
| 19> *xyz -1 1
| 20>   C   1.41700288821761      0.00090613864985      0.26849819360519
| 21>   C   0.35382184878315      0.91220487798168     -0.32937538065915
| 22>   C   -0.72031643014092      1.27614019704133      0.68960266339731
| 23>   C   -0.21811286740130      0.39097389414160     -1.63415254549130
| 24>   Br  -1.11201436074547     -1.35498283038357     -1.47476873771793
| 25>   H   1.89776633357160      0.49168377337067      1.12923069410356
| 26>   H   0.96594253674738     -0.93968053573454      0.62498489674897
| 27>   H   2.19431730878892     -0.25431885252935     -0.46837280549503
| 28>   H   0.85298551269917      1.85053697348755     -0.64167184717158
| 29>   H   -1.47536472594162      1.95135111978545      0.25692923733628
| 30>   H   -1.23997894392062      0.37468616520873      1.05325096280170
| 31>   H   -0.26694639683976      1.77525416747473      1.56006326322713
| 32>   H   -0.98775537659885      1.06068161087586     -2.03889341445779
| 33>   H   0.56290447460408      0.23273962772923     -2.38831012337801
| 34>   Br  2.30476819817664      2.15184367290077      3.73633494315065
| 35> *
| 36>
| 37>                          ****END OF INPUT****

CARTESIAN COORDINATES (ANGSTROEM)
---------------------------------
  C      1.417003    0.000906    0.268498
  C      0.353822    0.912205   -0.329375
  C     -0.720316    1.276140    0.689603
  C     -0.218113    0.390974   -1.634153
  Br    -1.112014   -1.354983   -1.474769
  H      1.897766    0.491684    1.129231
  H      0.965943   -0.939681    0.624985
  H      2.194317   -0.254319   -0.468373
  H      0.852986    1.850537   -0.641672
  H     -1.475365    1.951351    0.256929
  H     -1.239979    0.374686    1.053251
  H     -0.266946    1.775254    1.560063
  H     -0.987755    1.060682   -2.038893
  H      0.562904    0.232740   -2.388310
  Br     2.304768    2.151844    3.736335

 Total Charge           Charge          ....   -1
 Multiplicity           Mult            ....    1
 Number of Electrons    NEL             ....  104
 Basis Dimension        Dim             ....  274

ORBITAL ENERGIES
----------------

  NO   OCC          E(Eh)            E(eV)
   0   2.0000    -490.000789    -13333.5993
   1   2.0000    -489.910077    -13331.1309
   2   2.0000     -65.143330     -1772.6401
   3   2.0000     -65.053282     -1770.1898
   4   2.0000     -58.498448     -1591.8237
   5   2.0000     -58.497268     -1591.7916
   6   2.0000     -58.497257     -1591.7913
   7   2.0000     -58.407669     -1589.3535
   8   2.0000     -58.407668     -1589.3534
   9   2.0000     -58.407652     -1589.3530
  10   2.0000     -11.278171      -306.8946
  11   2.0000     -11.229475      -305.5695
  12   2.0000     -11.204698      -304.8953
  13   2.0000     -11.202671      -304.8402
  14   2.0000      -9.816699      -267.1260
  15   2.0000      -9.726660      -264.6759
  16   2.0000      -7.428201      -202.1316
  17   2.0000      -7.422530      -201.9773
  18   2.0000      -7.422465      -201.9755
  19   2.0000      -7.334680      -199.5868
  20   2.0000      -7.334675      -199.5866
  21   2.0000      -7.334602      -199.5847
  22   2.0000      -3.170546       -86.2749
  23   2.0000      -3.167637       -86.1958
  24   2.0000      -3.167588       -86.1945
  25   2.0000      -3.160359       -85.9977
  26   2.0000      -3.160354       -85.9976
  27   2.0000      -3.075445       -83.6871
  28   2.0000      -3.075444       -83.6871
  29   2.0000      -3.075342       -83.6843
  30   2.0000      -3.075327       -83.6839
  31   2.0000      -3.075297       -83.6831
  32   2.0000      -1.101657       -29.9776
  33   2.0000      -1.010758       -27.5041
  34   2.0000      -0.919987       -25.0341
  35   2.0000      -0.893686       -24.3184
  36   2.0000      -0.886577       -24.1250
  37   2.0000      -0.751698       -20.4547
  38   2.0000      -0.631677       -17.1888
  39   2.0000      -0.617183       -16.7944
  40   2.0000      -0.589450       -16.0398
  41   2.0000      -0.529651       -14.4125
  42   2.0000      -0.515795       -14.0355
  43   2.0000      -0.504785       -13.7359
  44   2.0000      -0.484980       -13.1970
  45   2.0000      -0.468456       -12.7473
  46   2.0000      -0.442077       -12.0295
  47   2.0000      -0.396493       -10.7891
  48   2.0000      -0.395204       -10.7541
  49   2.0000      -0.342278        -9.3138
  50   2.0000      -0.342024        -9.3070
  51   2.0000      -0.340526        -9.2662
  52   0.0000       0.145614         3.9624
  53   0.0000       0.156153         4.2491
  54   0.0000       0.189408         5.1541
  55   0.0000       0.191350         5.2069
  56   0.0000       0.214359         5.8330

E(0)                                       ...  -5301.780474388
E(0)                                       ...  -5301.780474388
E(CORR)                                    ...     -1.303814777
E(TOT)                                     ...  -5303.084289166
E(CCSD(T))                                 ...  -5303.131821908

MULLIKEN ATOMIC CHARGES
-----------------------
   0 C :   -0.432051
   1 C :   -0.010761
   2 C :   -0.431554
   3 C :   -0.210468
   4 Br:   -0.209679
   5 H :    0.141010
   6 H :    0.130361
   7 H :    0.136449
   8 H :    0.105188
   9 H :    0.137531
  10 H :    0.131756
  11 H :    0.137874
  12 H :    0.172505
  13 H :    0.175085
  14 Br:   -0.973247
Sum of atomic charges:   -1.0000000

LOEWDIN ATOMIC CHARGES
----------------------
   0 C :   -0.308701
   1 C :   -0.351017
   2 C :   -0.303656
   3 C :   -0.424948
   4 Br:    0.171725
   5 H :    0.118097
   6 H :    0.121596
   7 H :    0.125762
   8 H :    0.167862
   9 H :    0.126077
  10 H :    0.122522
  11 H :    0.121983
  12 H :    0.138719
  13 H :    0.138551
  14 Br:   -0.964571

  Mayer bond orders larger than 0.100000
B(  0-C ,  1-C ) :   0.9103 B(  0-C ,  5-H ) :   0.9175 B(  0-C ,  6-H ) :   0.9149
B(  0-C ,  7-H ) :   0.9232 B(  1-C ,  2-C ) :   0.9112 B(  1-C ,  3-C ) :   0.9230
B(  1-C ,  8-H ) :   0.8976 B(  2-C ,  9-H ) :   0.9230 B(  2-C , 10-H ) :   0.9151
B(  2-C , 11-H ) :   0.9208 B(  3-C ,  4-Br) :   0.8721 B(  3-C , 12-H ) :   0.9124
B(  3-C , 13-H ) :   0.9116

FINAL SINGLE POINT ENERGY     -5303.131821908301

DIPOLE MOMENT
-------------
                                X             Y             Z
Electronic contribution:      0.91239      -5.54215       8.54367
Nuclear contribution   :     -3.69209       3.46654     -14.02604
                        -----------------------------------------
Total Dipole Moment    :     -2.77970      -2.07561      -5.48237
                        -----------------------------------------
Magnitude (a.u.)       :      6.48778
Magnitude (Debye)      :     16.49062

Rotational constants in cm-1:     0.147561     0.007723     0.007677
Rotational constants in MHz :  4423.754054   231.528430   230.138064

                             ****ORCA TERMINATED NORMALLY****
TOTAL RUN TIME: 0 days 0 hours 32 minutes 47 seconds 319 msec
