                         Program Version 4.2.1 -  RELEASE  -
|  1> ! SP CCSD(T) def2-TZVP CPCM(DMF)
|  2> %cpcm
|  3> surfacetype vdw_gaussian
|  4> end
|  5> %geom MaxIter 100 end
|  6> %output
|  7> xyzfile=True
|  8> end
|  9> %scf
| 10> maxiter 250
| 11> end
| 12> %output
| 13> Print[P_Hirshfeld] = 1
| 14> end
| 15> % maxcore
| 16> 4000
| 17> %pal nprocs 4
| 18> end
| 19> *xyz -1 1
| 20>   C   -0.76144636220915     -0.24444108274403      0.52868478860705
| 21>   Br  0.12778569327444      0.30244774511492     -1.11069496354561
| 22>   H   -1.48829498205331      0.53368692223868      0.78538498314899
| 23>   H   0.03599547827828     -0.35116745853800      1.28480491843462
| 24>   H   -1.26800260496134     -1.19643604958433      0.32818590012696
| 25>   Cl  2.14259277767109     -0.47111007648723      2.48616437322798
| 26> *
| 27>
| 28>                          ****END OF INPUT****

CARTESIAN COORDINATES (ANGSTROEM)
---------------------------------
  C     -0.761446   -0.244441    0.528685
  Br     0.127786    0.302448   -1.110695
  H     -1.488295    0.533687    0.785385
  H      0.035995   -0.351167    1.284805
  H     -1.268003   -1.196436    0.328186
  Cl     2.142593   -0.471110    2.486164

 Total Charge           Charge          ....   -1
 Multiplicity           Mult            ....    1
 Number of Electrons    NEL             ....   62
 Basis Dimension        Dim             ....  134

ORBITAL ENERGIES
----------------

  NO   OCC          E(Eh)            E(eV)
   0   2.0000    -490.004336    -13333.6958
   1   2.0000    -104.710560     -2849.3192
   2   2.0000     -65.146945     -1772.7385
   3   2.0000     -58.502088     -1591.9227
   4   2.0000     -58.500856     -1591.8892
   5   2.0000     -58.500849     -1591.8890
   6   2.0000     -11.267536      -306.6052
   7   2.0000     -10.438134      -284.0361
   8   2.0000      -9.820562      -267.2311
   9   2.0000      -7.904674      -215.0971
  10   2.0000      -7.904654      -215.0966
  11   2.0000      -7.904651      -215.0965
  12   2.0000      -7.432233      -202.2414
  13   2.0000      -7.426288      -202.0796
  14   2.0000      -7.426251      -202.0786
  15   2.0000      -3.174654       -86.3867
  16   2.0000      -3.171609       -86.3039
  17   2.0000      -3.171572       -86.3029
  18   2.0000      -3.164026       -86.0975
  19   2.0000      -3.164025       -86.0975
  20   2.0000      -1.047863       -28.5138
  21   2.0000      -0.952643       -25.9227
  22   2.0000      -0.877225       -23.8705
  23   2.0000      -0.590338       -16.0639
  24   2.0000      -0.587041       -15.9742
  25   2.0000      -0.491825       -13.3833
  26   2.0000      -0.400174       -10.8893
  27   2.0000      -0.398733       -10.8501
  28   2.0000      -0.370426       -10.0798
  29   2.0000      -0.369597       -10.0572
  30   2.0000      -0.366050        -9.9607
  31   0.0000       0.143884         3.9153
  32   0.0000       0.190063         5.1719
  33   0.0000       0.227981         6.2037
  34   0.0000       0.279172         7.5967
  35   0.0000       0.300231         8.1697

E(0)                                       ...  -3071.719478988
E(0)                                       ...  -3071.719478988
E(CORR)                                    ...     -0.687266119
E(TOT)                                     ...  -3072.406745107
E(CCSD(T))                                 ...  -3072.430711333

MULLIKEN ATOMIC CHARGES
-----------------------
   0 C :   -0.360767
   1 Br:   -0.187298
   2 H :    0.168136
   3 H :    0.166409
   4 H :    0.167399
   5 Cl:   -0.953878
Sum of atomic charges:   -1.0000000

LOEWDIN ATOMIC CHARGES
----------------------
   0 C :   -0.531789
   1 Br:    0.136391
   2 H :    0.115283
   3 H :    0.089971
   4 H :    0.115737
   5 Cl:   -0.925593

  Mayer bond orders larger than 0.100000
B(  0-C ,  1-Br) :   0.9068 B(  0-C ,  2-H ) :   0.9124 B(  0-C ,  3-H ) :   0.8903
B(  0-C ,  4-H ) :   0.9126

FINAL SINGLE POINT ENERGY     -3072.430711332753

DIPOLE MOMENT
-------------
                                X             Y             Z
Electronic contribution:     -1.11923       3.54298     -13.27677
Nuclear contribution   :     -2.16344      -2.91710       9.71520
                        -----------------------------------------
Total Dipole Moment    :     -3.28267       0.62588      -3.56157
                        -----------------------------------------
Magnitude (a.u.)       :      4.88390
Magnitude (Debye)      :     12.41389

Rotational constants in cm-1:     0.427915     0.038718     0.035752
Rotational constants in MHz : 12828.559130  1160.725723  1071.813667

                             ****ORCA TERMINATED NORMALLY****
TOTAL RUN TIME: 0 days 0 hours 0 minutes 47 seconds 807 msec
