                         Program Version 4.2.1 -  RELEASE  -
|  1> ! SP CCSD(T) def2-TZVP CPCM(Acetone)
|  2> %cpcm
|  3> surfacetype vdw_gaussian
|  4> end
|  5> %geom MaxIter 100 end
|  6> %output
|  7> xyzfile=True
|  8> end
|  9> %scf
| 10> maxiter 250
| 11> end
| 12> %output
| 13> Print[P_Hirshfeld] = 1
| 14> end
| 15> % maxcore
| 16> 4000
| 17> %pal nprocs 4
| 18> end
| 19> *xyz -1 1
| 20>   C   -0.22903136734321      1.47754552303087     -2.41477131458861
| 21>   C   -0.61212666487172      0.14062203556538     -1.80747691104674
| 22>   C   -2.11764831429387     -0.00167824687765     -1.69562740850566
| 23>   C   0.01280056549135     -1.02969460801638     -2.54641989355266
| 24>   Br  0.11456926452728      0.09931059977573      0.06521937667724
| 25>   H   -0.61793388794388      1.52178755071493     -3.44622703869902
| 26>   H   -0.66888220702214      2.31138556874945     -1.84938402674032
| 27>   H   0.86198404375437      1.60757739774388     -2.45115007661822
| 28>   H   -2.55739351561619      0.04614939943910     -2.70626499885095
| 29>   H   -2.55313842838996      0.80968985451041     -1.09611932706885
| 30>   H   -2.39998072148067     -0.96308321965642     -1.24194137944686
| 31>   H   -0.22946205312162     -1.98362573199595     -2.05569589352787
| 32>   H   1.10656990564495     -0.93252258556434     -2.60843950441769
| 33>   H   -0.38986499913805     -1.06193315996416     -3.57279226449166
| 34>   Br  1.06437837980339     -0.45066037745486      3.54858066087790
| 35> *
| 36>
| 37>                          ****END OF INPUT****

CARTESIAN COORDINATES (ANGSTROEM)
---------------------------------
  C     -0.229031    1.477546   -2.414771
  C     -0.612127    0.140622   -1.807477
  C     -2.117648   -0.001678   -1.695627
  C      0.012801   -1.029695   -2.546420
  Br     0.114569    0.099311    0.065219
  H     -0.617934    1.521788   -3.446227
  H     -0.668882    2.311386   -1.849384
  H      0.861984    1.607577   -2.451150
  H     -2.557394    0.046149   -2.706265
  H     -2.553138    0.809690   -1.096119
  H     -2.399981   -0.963083   -1.241941
  H     -0.229462   -1.983626   -2.055696
  H      1.106570   -0.932523   -2.608440
  H     -0.389865   -1.061933   -3.572792
  Br     1.064378   -0.450660    3.548581

 Total Charge           Charge          ....   -1
 Multiplicity           Mult            ....    1
 Number of Electrons    NEL             ....  104
 Basis Dimension        Dim             ....  274

ORBITAL ENERGIES
----------------

  NO   OCC          E(Eh)            E(eV)
   0   2.0000    -489.989377    -13333.2888
   1   2.0000    -489.907165    -13331.0517
   2   2.0000     -65.131881     -1772.3286
   3   2.0000     -65.050454     -1770.1128
   4   2.0000     -58.486967     -1591.5113
   5   2.0000     -58.485757     -1591.4784
   6   2.0000     -58.485757     -1591.4784
   7   2.0000     -58.404830     -1589.2762
   8   2.0000     -58.404829     -1589.2762
   9   2.0000     -58.404806     -1589.2756
  10   2.0000     -11.292121      -307.2742
  11   2.0000     -11.217285      -305.2378
  12   2.0000     -11.217170      -305.2347
  13   2.0000     -11.216697      -305.2219
  14   2.0000      -9.805124      -266.8110
  15   2.0000      -9.723916      -264.6012
  16   2.0000      -7.416385      -201.8101
  17   2.0000      -7.410853      -201.6596
  18   2.0000      -7.410849      -201.6594
  19   2.0000      -7.331942      -199.5123
  20   2.0000      -7.331939      -199.5122
  21   2.0000      -7.331835      -199.5094
  22   2.0000      -3.158710       -85.9529
  23   2.0000      -3.155864       -85.8754
  24   2.0000      -3.155859       -85.8753
  25   2.0000      -3.148795       -85.6831
  26   2.0000      -3.148794       -85.6831
  27   2.0000      -3.072724       -83.6131
  28   2.0000      -3.072724       -83.6131
  29   2.0000      -3.072570       -83.6089
  30   2.0000      -3.072568       -83.6088
  31   2.0000      -3.072509       -83.6072
  32   2.0000      -1.116009       -30.3681
  33   2.0000      -0.963000       -26.2046
  34   2.0000      -0.937028       -25.4978
  35   2.0000      -0.935770       -25.4636
  36   2.0000      -0.884460       -24.0674
  37   2.0000      -0.734351       -19.9827
  38   2.0000      -0.614008       -16.7080
  39   2.0000      -0.605439       -16.4748
  40   2.0000      -0.604681       -16.4542
  41   2.0000      -0.542164       -14.7530
  42   2.0000      -0.540732       -14.7141
  43   2.0000      -0.513550       -13.9744
  44   2.0000      -0.484004       -13.1704
  45   2.0000      -0.483296       -13.1512
  46   2.0000      -0.434400       -11.8206
  47   2.0000      -0.390710       -10.6317
  48   2.0000      -0.390341       -10.6217
  49   2.0000      -0.339639        -9.2420
  50   2.0000      -0.339593        -9.2408
  51   2.0000      -0.335184        -9.1208
  52   0.0000       0.142004         3.8641
  53   0.0000       0.156181         4.2499
  54   0.0000       0.198280         5.3955
  55   0.0000       0.198769         5.4088
  56   0.0000       0.217003         5.9049

E(0)                                       ...  -5301.782328842
E(0)                                       ...  -5301.782328842
E(CORR)                                    ...     -1.306257662
E(TOT)                                     ...  -5303.088586503
E(CCSD(T))                                 ...  -5303.136837628

MULLIKEN ATOMIC CHARGES
-----------------------
   0 C :   -0.412853
   1 C :    0.133330
   2 C :   -0.414758
   3 C :   -0.412905
   4 Br:   -0.239396
   5 H :    0.143826
   6 H :    0.149086
   7 H :    0.148950
   8 H :    0.143880
   9 H :    0.149543
  10 H :    0.149039
  11 H :    0.149707
  12 H :    0.149184
  13 H :    0.143570
  14 Br:   -0.980203
Sum of atomic charges:   -1.0000000

LOEWDIN ATOMIC CHARGES
----------------------
   0 C :   -0.301285
   1 C :   -0.507620
   2 C :   -0.302669
   3 C :   -0.302065
   4 Br:    0.192543
   5 H :    0.136569
   6 H :    0.130563
   7 H :    0.129791
   8 H :    0.136410
   9 H :    0.129996
  10 H :    0.130324
  11 H :    0.130332
  12 H :    0.130164
  13 H :    0.136135
  14 Br:   -0.969189

  Mayer bond orders larger than 0.100000
B(  0-C ,  1-C ) :   0.9204 B(  0-C ,  5-H ) :   0.9073 B(  0-C ,  6-H ) :   0.9188
B(  0-C ,  7-H ) :   0.9187 B(  1-C ,  2-C ) :   0.9211 B(  1-C ,  3-C ) :   0.9199
B(  1-C ,  4-Br) :   0.8281 B(  2-C ,  8-H ) :   0.9072 B(  2-C ,  9-H ) :   0.9188
B(  2-C , 10-H ) :   0.9187 B(  3-C , 11-H ) :   0.9185 B(  3-C , 12-H ) :   0.9187
B(  3-C , 13-H ) :   0.9072

FINAL SINGLE POINT ENERGY     -5303.136837627879

DIPOLE MOMENT
-------------
                                X             Y             Z
Electronic contribution:     13.56388      -2.93550      39.27940
Nuclear contribution   :    -15.53903       3.61618     -45.53818
                        -----------------------------------------
Total Dipole Moment    :     -1.97515       0.68068      -6.25878
                        -----------------------------------------
Magnitude (a.u.)       :      6.59825
Magnitude (Debye)      :     16.77142

Rotational constants in cm-1:     0.148884     0.012654     0.012637
Rotational constants in MHz :  4463.438201   379.362829   378.861706

                             ****ORCA TERMINATED NORMALLY****
TOTAL RUN TIME: 0 days 0 hours 43 minutes 49 seconds 223 msec
