                         Program Version 4.2.1 -  RELEASE  -
|  1> ! SP CCSD(T) def2-TZVP CPCM(Acetone)
|  2> %cpcm
|  3> surfacetype vdw_gaussian
|  4> end
|  5> %geom MaxIter 100 end
|  6> %output
|  7> xyzfile=True
|  8> end
|  9> %scf
| 10> maxiter 250
| 11> end
| 12> %output
| 13> Print[P_Hirshfeld] = 1
| 14> end
| 15> % maxcore
| 16> 4000
| 17> %pal nprocs 4
| 18> end
| 19> *xyz -1 1
| 20>   C   -0.39329203470779     -2.13612586394344     -1.20869876237281
| 21>   C   -0.55496529794089     -1.13736514933627     -0.09159053279048
| 22>   C   -1.95911000985706     -1.01763761284108      0.44711518228325
| 23>   I   0.13241150226865      0.85203782616401     -0.77552160385186
| 24>   H   0.64465359124733     -2.19878681956794     -1.56611097441079
| 25>   H   -1.04541291060192     -1.91235439744443     -2.06696322626260
| 26>   H   -0.67793477571799     -3.12845580221091     -0.81562757188102
| 27>   H   0.13431176592706     -1.30994575323490      0.75376318305052
| 28>   H   -1.98628514994477     -0.36035498119015      1.32648426642358
| 29>   H   -2.27854867106139     -2.02073080656808      0.77991545875016
| 30>   H   -2.67531552642862     -0.66510338150647     -0.31125494604639
| 31>   Cl  0.59700751681740     -1.22341725832033      3.05694952710843
| 32> *
| 33>
| 34>                          ****END OF INPUT****

CARTESIAN COORDINATES (ANGSTROEM)
---------------------------------
  C     -0.393292   -2.136126   -1.208699
  C     -0.554965   -1.137365   -0.091591
  C     -1.959110   -1.017638    0.447115
  I      0.132412    0.852038   -0.775522
  H      0.644654   -2.198787   -1.566111
  H     -1.045413   -1.912354   -2.066963
  H     -0.677935   -3.128456   -0.815628
  H      0.134312   -1.309946    0.753763
  H     -1.986285   -0.360355    1.326484
  H     -2.278549   -2.020731    0.779915
  H     -2.675316   -0.665103   -0.311255
  Cl     0.597008   -1.223417    3.056950

 Total Charge           Charge          ....   -1
 Multiplicity           Mult            ....    1
 Number of Electrons    NEL             ....   68
 Basis Dimension        Dim             ....  222

ORBITAL ENERGIES
----------------

  NO   OCC          E(Eh)            E(eV)
   0   2.0000    -104.704870     -2849.1643
   1   2.0000     -11.273791      -306.7754
   2   2.0000     -11.217606      -305.2466
   3   2.0000     -11.214533      -305.1630
   4   2.0000     -10.432623      -283.8861
   5   2.0000      -7.899156      -214.9470
   6   2.0000      -7.899123      -214.9461
   7   2.0000      -7.899119      -214.9459
   8   2.0000      -7.707937      -209.7436
   9   2.0000      -5.560456      -151.3077
  10   2.0000      -5.553993      -151.1318
  11   2.0000      -5.553970      -151.1312
  12   2.0000      -2.255951       -61.3875
  13   2.0000      -2.252750       -61.3004
  14   2.0000      -2.252722       -61.2997
  15   2.0000      -2.245403       -61.1005
  16   2.0000      -2.245402       -61.1005
  17   2.0000      -1.071005       -29.1435
  18   2.0000      -0.948101       -25.7992
  19   2.0000      -0.932422       -25.3725
  20   2.0000      -0.871650       -23.7188
  21   2.0000      -0.762208       -20.7407
  22   2.0000      -0.621643       -16.9158
  23   2.0000      -0.586039       -15.9469
  24   2.0000      -0.563398       -15.3308
  25   2.0000      -0.533358       -14.5134
  26   2.0000      -0.494162       -13.4468
  27   2.0000      -0.490466       -13.3463
  28   2.0000      -0.399875       -10.8812
  29   2.0000      -0.367163        -9.9910
  30   2.0000      -0.364800        -9.9267
  31   2.0000      -0.359859        -9.7923
  32   2.0000      -0.351047        -9.5525
  33   2.0000      -0.347997        -9.4695
  34   0.0000       0.108967         2.9652
  35   0.0000       0.155869         4.2414
  36   0.0000       0.194532         5.2935
  37   0.0000       0.215582         5.8663
  38   0.0000       0.223470         6.0809

E(0)                                       ...   -874.055180258
E(0)                                       ...   -874.055180258
E(CORR)                                    ...     -1.238750370
E(TOT)                                     ...   -875.293930629
E(CCSD(T))                                 ...   -875.334715475

MULLIKEN ATOMIC CHARGES
-----------------------
   0 C :   -0.403697
   1 C :   -0.031439
   2 C :   -0.399408
   3 I :   -0.226767
   4 H :    0.151670
   5 H :    0.142400
   6 H :    0.145802
   7 H :    0.134144
   8 H :    0.141349
   9 H :    0.139371
  10 H :    0.141773
  11 Cl:   -0.935198
Sum of atomic charges:   -1.0000000

LOEWDIN ATOMIC CHARGES
----------------------
   0 C :   -0.333844
   1 C :   -0.471482
   2 C :   -0.341324
   3 I :    0.137235
   4 H :    0.127747
   5 H :    0.128038
   6 H :    0.136724
   7 H :    0.122219
   8 H :    0.124294
   9 H :    0.135511
  10 H :    0.125403
  11 Cl:   -0.890521

  Mayer bond orders larger than 0.100000
B(  0-C ,  1-C ) :   0.9178 B(  0-C ,  4-H ) :   0.9212 B(  0-C ,  5-H ) :   0.9176
B(  0-C ,  6-H ) :   0.9054 B(  1-C ,  2-C ) :   0.9262 B(  1-C ,  3-I ) :   0.8510
B(  1-C ,  7-H ) :   0.8796 B(  2-C ,  8-H ) :   0.9196 B(  2-C ,  9-H ) :   0.9057
B(  2-C , 10-H ) :   0.9137 B(  7-H , 11-Cl) :   0.1177

FINAL SINGLE POINT ENERGY      -875.334715475446

DIPOLE MOMENT
-------------
                                X             Y             Z
Electronic contribution:     17.90704      71.61104     -54.74866
Nuclear contribution   :    -19.41040     -70.55395      49.65847
                        -----------------------------------------
Total Dipole Moment    :     -1.50336       1.05709      -5.09020
                        -----------------------------------------
Magnitude (a.u.)       :      5.41180
Magnitude (Debye)      :     13.75571

Rotational constants in cm-1:     0.074939     0.028143     0.023168
Rotational constants in MHz :  2246.616860   843.693258   694.552229

                             ****ORCA TERMINATED NORMALLY****
TOTAL RUN TIME: 0 days 0 hours 12 minutes 27 seconds 964 msec
