                         Program Version 4.2.1 -  RELEASE  -
|  1> ! SP CCSD(T) def2-TZVP CPCM(Acetone)
|  2> %cpcm
|  3> surfacetype vdw_gaussian
|  4> end
|  5> %geom MaxIter 100 end
|  6> %output
|  7> xyzfile=True
|  8> end
|  9> %scf
| 10> maxiter 250
| 11> end
| 12> %output
| 13> Print[P_Hirshfeld] = 1
| 14> end
| 15> % maxcore
| 16> 4000
| 17> %pal nprocs 4
| 18> end
| 19> *xyz -1 1
| 20>    C   -1.42840276573358     -0.23928733852081     -0.40652965775584
| 21>   Br  0.28236299511026      0.29829143538114     -1.15106402809382
| 22>   H   -1.71347848741789     -1.19380355924790     -0.86331038558278
| 23>   H   -2.15781426466232      0.54076385868963     -0.64989694071891
| 24>   H   -1.27944221437355     -0.34211653559927      0.67730522375387
| 25>   Br  0.25436473707708     -0.62516786070279      3.13082578839748
| 26> *
| 27>
| 28>                          ****END OF INPUT****

CARTESIAN COORDINATES (ANGSTROEM)
---------------------------------
  C     -1.428403   -0.239287   -0.406530
  Br     0.282363    0.298291   -1.151064
  H     -1.713478   -1.193804   -0.863310
  H     -2.157814    0.540764   -0.649897
  H     -1.279442   -0.342117    0.677305
  Br     0.254365   -0.625168    3.130826

 Total Charge           Charge          ....   -1
 Multiplicity           Mult            ....    1
 Number of Electrons    NEL             ....   80
 Basis Dimension        Dim             ....  145

ORBITAL ENERGIES
----------------

  NO   OCC          E(Eh)            E(eV)
   0   2.0000    -490.003977    -13333.6861
   1   2.0000    -489.910095    -13331.1314
   2   2.0000     -65.146549     -1772.7277
   3   2.0000     -65.053347     -1770.1916
   4   2.0000     -58.501713     -1591.9126
   5   2.0000     -58.500447     -1591.8781
   6   2.0000     -58.500439     -1591.8779
   7   2.0000     -58.407728     -1589.3551
   8   2.0000     -58.407725     -1589.3550
   9   2.0000     -58.407711     -1589.3546
  10   2.0000     -11.270616      -306.6891
  11   2.0000      -9.820130      -267.2193
  12   2.0000      -9.726784      -264.6792
  13   2.0000      -7.431878      -202.2317
  14   2.0000      -7.425793      -202.0661
  15   2.0000      -7.425756      -202.0651
  16   2.0000      -7.334800      -199.5901
  17   2.0000      -7.334789      -199.5897
  18   2.0000      -7.334738      -199.5884
  19   2.0000      -3.174342       -86.3782
  20   2.0000      -3.171226       -86.2934
  21   2.0000      -3.171183       -86.2923
  22   2.0000      -3.163465       -86.0823
  23   2.0000      -3.163464       -86.0822
  24   2.0000      -3.075550       -83.6900
  25   2.0000      -3.075550       -83.6900
  26   2.0000      -3.075473       -83.6879
  27   2.0000      -3.075455       -83.6874
  28   2.0000      -3.075433       -83.6868
  29   2.0000      -1.048285       -28.5253
  30   2.0000      -0.887678       -24.1549
  31   2.0000      -0.878581       -23.9074
  32   2.0000      -0.590231       -16.0610
  33   2.0000      -0.588201       -16.0058
  34   2.0000      -0.493238       -13.4217
  35   2.0000      -0.397955       -10.8289
  36   2.0000      -0.397820       -10.8252
  37   2.0000      -0.342457        -9.3187
  38   2.0000      -0.341914        -9.3040
  39   2.0000      -0.341372        -9.2892
  40   0.0000       0.143766         3.9121
  41   0.0000       0.190580         5.1859
  42   0.0000       0.228518         6.2183
  43   0.0000       0.262248         7.1361
  44   0.0000       0.293028         7.9737

E(0)                                       ...  -5184.635263667
E(0)                                       ...  -5184.635263667
E(CORR)                                    ...     -0.761575991
E(TOT)                                     ...  -5185.396839658
E(CCSD(T))                                 ...  -5185.421786230

MULLIKEN ATOMIC CHARGES
-----------------------
   0 C :   -0.359957
   1 Br:   -0.173572
   2 H :    0.171318
   3 H :    0.171870
   4 H :    0.167502
   5 Br:   -0.977162
Sum of atomic charges:   -1.0000000

LOEWDIN ATOMIC CHARGES
----------------------
   0 C :   -0.522180
   1 Br:    0.147509
   2 H :    0.117501
   3 H :    0.117044
   4 H :    0.100612
   5 Br:   -0.960486

  Mayer bond orders larger than 0.100000
B(  0-C ,  1-Br) :   0.9153 B(  0-C ,  2-H ) :   0.9124 B(  0-C ,  3-H ) :   0.9124
B(  0-C ,  4-H ) :   0.9014

FINAL SINGLE POINT ENERGY     -5185.421786230131

DIPOLE MOMENT
-------------
                                X             Y             Z
Electronic contribution:      6.84965       1.16433       1.64504
Nuclear contribution   :     -7.96518      -0.60159      -5.42741
                        -----------------------------------------
Total Dipole Moment    :     -1.11554       0.56274      -3.78237
                        -----------------------------------------
Magnitude (a.u.)       :      3.98339
Magnitude (Debye)      :     10.12498

Rotational constants in cm-1:     0.370895     0.021216     0.020146
Rotational constants in MHz : 11119.151764   636.032721   603.974224

                             ****ORCA TERMINATED NORMALLY****
TOTAL RUN TIME: 0 days 0 hours 1 minutes 41 seconds 381 msec
