                         Program Version 4.2.1 -  RELEASE  -
|  1> ! SP CCSD(T) def2-TZVP CPCM(DMF)
|  2> %cpcm
|  3> surfacetype vdw_gaussian
|  4> end
|  5> %geom MaxIter 100 end
|  6> %output
|  7> xyzfile=True
|  8> end
|  9> %scf
| 10> maxiter 250
| 11> end
| 12> %output
| 13> Print[P_Hirshfeld] = 1
| 14> end
| 15> % maxcore
| 16> 4000
| 17> %pal nprocs 4
| 18> end
| 19> *xyz -1 1
| 20>   C   -0.05543222422965     -1.06890138008958      1.02389465376885
| 21>   C   0.62917946061395     -0.45398884179057     -0.19087510498457
| 22>   C   1.43524234469715      0.78051261614000      0.19474917369501
| 23>   C   -0.29978728776592     -0.23845529029786     -1.36840351901004
| 24>   Br  -1.80658640449709      0.97235637542428     -0.98232754748740
| 25>   H   0.72720397507228     -1.41840868363841      1.71520443910096
| 26>   H   -0.69536041203735     -0.32971351059636      1.53321465903038
| 27>   H   -0.68737483476443     -1.92629897901319      0.74189928870881
| 28>   H   1.35818821998424     -1.20304779923236     -0.55557445799467
| 29>   H   1.92763419837458      1.23667938008889     -0.68007916555388
| 30>   H   0.79622713804767      1.54586217726889      0.66435200175038
| 31>   H   2.21104094083607      0.46902984933777      0.91069566241496
| 32>   H   0.21292819749066      0.22633703217323     -2.22104947992072
| 33>   H   -0.77781794359335     -1.17141559852099     -1.69344615225637
| 34>   Cl  3.32274463177119     -1.88723734725373      1.82746554873829
| 35> *
| 36>
| 37>                          ****END OF INPUT****

CARTESIAN COORDINATES (ANGSTROEM)
---------------------------------
  C     -0.055432   -1.068901    1.023895
  C      0.629179   -0.453989   -0.190875
  C      1.435242    0.780513    0.194749
  C     -0.299787   -0.238455   -1.368404
  Br    -1.806586    0.972356   -0.982328
  H      0.727204   -1.418409    1.715204
  H     -0.695360   -0.329714    1.533215
  H     -0.687375   -1.926299    0.741899
  H      1.358188   -1.203048   -0.555574
  H      1.927634    1.236679   -0.680079
  H      0.796227    1.545862    0.664352
  H      2.211041    0.469030    0.910696
  H      0.212928    0.226337   -2.221049
  H     -0.777818   -1.171416   -1.693446
  Cl     3.322745   -1.887237    1.827466

 Total Charge           Charge          ....   -1
 Multiplicity           Mult            ....    1
 Number of Electrons    NEL             ....   86
 Basis Dimension        Dim             ....  263

ORBITAL ENERGIES
----------------

  NO   OCC          E(Eh)            E(eV)
   0   2.0000    -490.001321    -13333.6138
   1   2.0000    -104.706114     -2849.1982
   2   2.0000     -65.143872     -1772.6549
   3   2.0000     -58.498982     -1591.8382
   4   2.0000     -58.497814     -1591.8065
   5   2.0000     -58.497806     -1591.8062
   6   2.0000     -11.278090      -306.8924
   7   2.0000     -11.225374      -305.4579
   8   2.0000     -11.200632      -304.7847
   9   2.0000     -11.198751      -304.7335
  10   2.0000     -10.433748      -283.9167
  11   2.0000      -9.817251      -267.1410
  12   2.0000      -7.900275      -214.9774
  13   2.0000      -7.900274      -214.9774
  14   2.0000      -7.900268      -214.9772
  15   2.0000      -7.428715      -202.1456
  16   2.0000      -7.423102      -201.9929
  17   2.0000      -7.423047      -201.9914
  18   2.0000      -3.171039       -86.2884
  19   2.0000      -3.168163       -86.2101
  20   2.0000      -3.168121       -86.2090
  21   2.0000      -3.160967       -86.0143
  22   2.0000      -3.160963       -86.0142
  23   2.0000      -1.099396       -29.9161
  24   2.0000      -1.010515       -27.4975
  25   2.0000      -0.948143       -25.8003
  26   2.0000      -0.916215       -24.9315
  27   2.0000      -0.892293       -24.2805
  28   2.0000      -0.748892       -20.3784
  29   2.0000      -0.631068       -17.1722
  30   2.0000      -0.615246       -16.7417
  31   2.0000      -0.587284       -15.9808
  32   2.0000      -0.527895       -14.3647
  33   2.0000      -0.513767       -13.9803
  34   2.0000      -0.504921       -13.7396
  35   2.0000      -0.482088       -13.1183
  36   2.0000      -0.464407       -12.6372
  37   2.0000      -0.440423       -11.9845
  38   2.0000      -0.397232       -10.8092
  39   2.0000      -0.396135       -10.7794
  40   2.0000      -0.366210        -9.9651
  41   2.0000      -0.365351        -9.9417
  42   2.0000      -0.361570        -9.8388
  43   0.0000       0.145584         3.9615
  44   0.0000       0.158525         4.3137
  45   0.0000       0.190542         5.1849
  46   0.0000       0.192403         5.2355
  47   0.0000       0.215692         5.8693

E(0)                                       ...  -3188.860746336
E(0)                                       ...  -3188.860746336
E(CORR)                                    ...     -1.231234906
E(TOT)                                     ...  -3190.091981241
E(CCSD(T))                                 ...  -3190.138852720

MULLIKEN ATOMIC CHARGES
-----------------------
   0 C :   -0.450020
   1 C :    0.038403
   2 C :   -0.450819
   3 C :   -0.198831
   4 Br:   -0.216312
   5 H :    0.140173
   6 H :    0.124627
   7 H :    0.130843
   8 H :    0.079555
   9 H :    0.132440
  10 H :    0.125320
  11 H :    0.137757
  12 H :    0.171137
  13 H :    0.174460
  14 Cl:   -0.938733
Sum of atomic charges:   -1.0000000

LOEWDIN ATOMIC CHARGES
----------------------
   0 C :   -0.319264
   1 C :   -0.358604
   2 C :   -0.313296
   3 C :   -0.423287
   4 Br:    0.164841
   5 H :    0.113896
   6 H :    0.118350
   7 H :    0.123385
   8 H :    0.161706
   9 H :    0.123849
  10 H :    0.119186
  11 H :    0.117150
  12 H :    0.138071
  13 H :    0.137948
  14 Cl:   -0.903933

  Mayer bond orders larger than 0.100000
B(  0-C ,  1-C ) :   0.8984 B(  0-C ,  5-H ) :   0.9144 B(  0-C ,  6-H ) :   0.9152
B(  0-C ,  7-H ) :   0.9243 B(  1-C ,  2-C ) :   0.9023 B(  1-C ,  3-C ) :   0.9210
B(  1-C ,  8-H ) :   0.8914 B(  2-C ,  9-H ) :   0.9236 B(  2-C , 10-H ) :   0.9155
B(  2-C , 11-H ) :   0.9181 B(  3-C ,  4-Br) :   0.8698 B(  3-C , 12-H ) :   0.9137
B(  3-C , 13-H ) :   0.9126

FINAL SINGLE POINT ENERGY     -3190.138852719505

DIPOLE MOMENT
-------------
                                X             Y             Z
Electronic contribution:    -22.15023      11.59847     -10.48795
Nuclear contribution   :     17.06198      -8.95274       6.83768
                        -----------------------------------------
Total Dipole Moment    :     -5.08824       2.64572      -3.65027
                        -----------------------------------------
Magnitude (a.u.)       :      6.79813
Magnitude (Debye)      :     17.27947

Rotational constants in cm-1:     0.186713     0.014995     0.014702
Rotational constants in MHz :  5597.528109   449.541988   440.761122

                             ****ORCA TERMINATED NORMALLY****
TOTAL RUN TIME: 0 days 0 hours 31 minutes 32 seconds 964 msec
