                         Program Version 4.2.1 -  RELEASE  -
|  1> ! SP CCSD(T) def2-TZVP CPCM(Acetone)
|  2> %cpcm
|  3> surfacetype vdw_gaussian
|  4> end
|  5> %geom MaxIter 100 end
|  6> %output
|  7> xyzfile=True
|  8> end
|  9> %scf
| 10> maxiter 250
| 11> end
| 12> %output
| 13> Print[P_Hirshfeld] = 1
| 14> end
| 15> % maxcore
| 16> 4000
| 17> %pal nprocs 4
| 18> end
| 19> *xyz -1 1
| 20>   C   1.40420650661284     -0.44746594895112     -0.70835690274319
| 21>   C   0.03845186361816     -0.17339749570810     -0.12768038651962
| 22>   C   -0.70555536336300     -1.41535539685369      0.29867827417430
| 23>   Br  -1.04966485865660      0.85378556413255     -1.45298635230071
| 24>   H   1.90703891189243      0.47740003217115     -1.02561305937239
| 25>   H   1.33652356518682     -1.12596196662642     -1.57311241983143
| 26>   H   1.99299789639203     -0.93759628183692      0.08977867747395
| 27>   H   0.10683344954809      0.53498215344063      0.70942792765054
| 28>   H   -1.67860383207555     -1.17368335750122      0.75122538531939
| 29>   H   -0.06971231827735     -1.91679458422128      1.05134815140855
| 30>   H   -0.86626917254884     -2.09711454989401     -0.55061080354824
| 31>   Cl  2.24530335167097     -2.03496816815156      2.38240150828885
| 32> *
| 33>
| 34>                          ****END OF INPUT****

CARTESIAN COORDINATES (ANGSTROEM)
---------------------------------
  C      1.404207   -0.447466   -0.708357
  C      0.038452   -0.173397   -0.127680
  C     -0.705555   -1.415355    0.298678
  Br    -1.049665    0.853786   -1.452986
  H      1.907039    0.477400   -1.025613
  H      1.336524   -1.125962   -1.573112
  H      1.992998   -0.937596    0.089779
  H      0.106833    0.534982    0.709428
  H     -1.678604   -1.173683    0.751225
  H     -0.069712   -1.916795    1.051348
  H     -0.866269   -2.097115   -0.550611
  Cl     2.245303   -2.034968    2.382402

 Total Charge           Charge          ....   -1
 Multiplicity           Mult            ....    1
 Number of Electrons    NEL             ....   78
 Basis Dimension        Dim             ....  220

ORBITAL ENERGIES
----------------

  NO   OCC          E(Eh)            E(eV)
   0   2.0000    -489.994092    -13333.4171
   1   2.0000    -104.703876     -2849.1373
   2   2.0000     -65.136777     -1772.4618
   3   2.0000     -58.491816     -1591.6432
   4   2.0000     -58.490731     -1591.6137
   5   2.0000     -58.490724     -1591.6135
   6   2.0000     -11.285384      -307.0909
   7   2.0000     -11.211067      -305.0686
   8   2.0000     -11.208987      -305.0120
   9   2.0000     -10.431592      -283.8580
  10   2.0000      -9.810187      -266.9488
  11   2.0000      -7.898108      -214.9185
  12   2.0000      -7.898100      -214.9182
  13   2.0000      -7.898099      -214.9182
  14   2.0000      -7.421379      -201.9460
  15   2.0000      -7.416149      -201.8037
  16   2.0000      -7.416133      -201.8032
  17   2.0000      -3.163565       -86.0850
  18   2.0000      -3.160923       -86.0131
  19   2.0000      -3.160873       -86.0117
  20   2.0000      -3.154230       -85.8310
  21   2.0000      -3.154224       -85.8308
  22   2.0000      -1.091829       -29.7102
  23   2.0000      -0.963507       -26.2183
  24   2.0000      -0.945664       -25.7328
  25   2.0000      -0.929194       -25.2847
  26   2.0000      -0.772962       -21.0334
  27   2.0000      -0.623517       -16.9668
  28   2.0000      -0.593477       -16.1493
  29   2.0000      -0.562565       -15.3082
  30   2.0000      -0.531973       -14.4757
  31   2.0000      -0.493187       -13.4203
  32   2.0000      -0.492674       -13.4063
  33   2.0000      -0.441958       -12.0263
  34   2.0000      -0.394029       -10.7221
  35   2.0000      -0.393941       -10.7197
  36   2.0000      -0.364354        -9.9146
  37   2.0000      -0.362441        -9.8625
  38   2.0000      -0.358034        -9.7426
  39   0.0000       0.146916         3.9978
  40   0.0000       0.169870         4.6224
  41   0.0000       0.193880         5.2758
  42   0.0000       0.198553         5.4029
  43   0.0000       0.228772         6.2252

E(0)                                       ...  -3149.815682243
E(0)                                       ...  -3149.815682243
E(CORR)                                    ...     -1.049348512
E(TOT)                                     ...  -3150.865030755
E(CCSD(T))                                 ...  -3150.904469532

MULLIKEN ATOMIC CHARGES
-----------------------
   0 C :   -0.403094
   1 C :    0.011182
   2 C :   -0.404325
   3 Br:   -0.246264
   4 H :    0.140856
   5 H :    0.130850
   6 H :    0.145327
   7 H :    0.138882
   8 H :    0.142334
   9 H :    0.143726
  10 H :    0.133426
  11 Cl:   -0.932899
Sum of atomic charges:   -1.0000000

LOEWDIN ATOMIC CHARGES
----------------------
   0 C :   -0.339971
   1 C :   -0.468111
   2 C :   -0.335378
   3 Br:    0.148941
   4 H :    0.124307
   5 H :    0.126194
   6 H :    0.120811
   7 H :    0.148984
   8 H :    0.125488
   9 H :    0.124617
  10 H :    0.126326
  11 Cl:   -0.902208

  Mayer bond orders larger than 0.100000
B(  0-C ,  1-C ) :   0.9281 B(  0-C ,  4-H ) :   0.9191 B(  0-C ,  5-H ) :   0.9145
B(  0-C ,  6-H ) :   0.8922 B(  1-C ,  2-C ) :   0.9293 B(  1-C ,  3-Br) :   0.8451
B(  1-C ,  7-H ) :   0.9140 B(  2-C ,  8-H ) :   0.9193 B(  2-C ,  9-H ) :   0.8945
B(  2-C , 10-H ) :   0.9142

FINAL SINGLE POINT ENERGY     -3150.904469532127

DIPOLE MOMENT
-------------
                                X             Y             Z
Electronic contribution:    -12.73448      14.53789     -12.66254
Nuclear contribution   :      9.48063     -11.93762       8.78957
                        -----------------------------------------
Total Dipole Moment    :     -3.25385       2.60027      -3.87298
                        -----------------------------------------
Magnitude (a.u.)       :      5.68761
Magnitude (Debye)      :     14.45675

Rotational constants in cm-1:     0.238877     0.019489     0.018658
Rotational constants in MHz :  7161.342861   584.265942   559.350211

                             ****ORCA TERMINATED NORMALLY****
TOTAL RUN TIME: 0 days 0 hours 7 minutes 57 seconds 163 msec
